********************************************************************************
*                       GENERAL UTILITY LATTICE PROGRAM                        *
*                                 Julian Gale                                  *
*                      Nanochemistry Research Institute                        *
*                           Department of Chemistry                            *
*                    Curtin University, Western Australia                      *
********************************************************************************
* Version = 4.0.5 * Last modified =  21st June 2012                            *
********************************************************************************
*  single       - perform a single point run                                   *
*  phonon       - calculate phonons for final geometry                         *
*  thermal      - calculate thermal conductivity for final geometry            *
*  eigenvectors - output phonon eigenvectors                                   *
********************************************************************************

  Job Started  at 00:46.42 27th January    2013                               

  Number of CPUs =     1


  Total number of configurations input =   1

********************************************************************************
*  Input for Configuration =   1                                               *
********************************************************************************

  Formula = Ar4                                                         

  Number of irreducible atoms/shells =       4


  Total number atoms/shells =       4

  Dimensionality = 3               :  Bulk   



  Cartesian lattice vectors (Angstroms) :

       68.000000    0.000000    0.000000
        0.000000   68.000000    0.000000
        0.000000    0.000000   68.000000

  Cell parameters (Angstroms/Degrees):

  a =      68.0000    alpha =  90.0000
  b =      68.0000    beta  =  90.0000
  c =      68.0000    gamma =  90.0000

  Initial cell volume =      314432.000000 Angs**3

  Temperature of configuration =  0.000     K 

  Pressure of configuration =         0.000 GPa 

  Fractional coordinates of asymmetric unit :

--------------------------------------------------------------------------------
   No.  Atomic       x           y          z         Charge      Occupancy
        Label      (Frac)      (Frac)     (Frac)        (e)         (Frac)  
--------------------------------------------------------------------------------
      1 Ar1   c    0.000000    0.000000    0.000000     0.00000    1.000000    
      2 Ar1   c    0.039090    0.039090    0.000000     0.00000    1.000000    
      3 Ar1   c    0.039090    0.000000    0.039090     0.00000    1.000000    
      4 Ar1   c    0.000000    0.039090    0.039090     0.00000    1.000000    
--------------------------------------------------------------------------------



********************************************************************************
*  General input information                                                   *
********************************************************************************

  Species output for all configurations : 

--------------------------------------------------------------------------------
  Species    Type    Atomic    Atomic    Charge       Radii (Angs)     Library
                     Number     Mass       (e)     Cova   Ionic  VDW   Symbol
--------------------------------------------------------------------------------
    Ar1      Core       18      39.95   0.000000   0.000  0.000  0.000          
--------------------------------------------------------------------------------


  Lattice summation method               =    Ewald          (3-D)
                                         =    Parry          (2-D)
                                         =    Saunders et al (1-D)
  Accuracy factor for lattice sums       =   12.000


  Time limit = Infinity

  Maximum range for interatomic potentials =    100000.000000 Angstroms

  General interatomic potentials :

--------------------------------------------------------------------------------
Atom  Types   Potential         A         B         C         D     Cutoffs(Ang)
  1     2                                                            Min    Max 
--------------------------------------------------------------------------------
Ar1  c Ar1  c Lennard 12  6 0.995E+05  64.4      0.00      0.00     0.000  8.500
--------------------------------------------------------------------------------

********************************************************************************
*  Output for configuration   1                                                *
********************************************************************************


  Components of energy : 

--------------------------------------------------------------------------------
  Interatomic potentials     =          -0.06197691 eV
  Monopole - monopole (real) =           0.00000000 eV
  Monopole - monopole (recip)=           0.00000000 eV
  Monopole - monopole (total)=           0.00000000 eV
--------------------------------------------------------------------------------
  Total lattice energy       =          -0.06197691 eV
--------------------------------------------------------------------------------
  Total lattice energy       =              -5.9798 kJ/(mole unit cells)
--------------------------------------------------------------------------------


  Elastic Constant Matrix: (Units=GPa)

-------------------------------------------------------------------------------
  Indices      1         2         3         4         5         6    
-------------------------------------------------------------------------------
       1      0.0000    0.0000    0.0000    0.0000    0.0000   -0.0000
       2      0.0000    0.0000    0.0000    0.0000    0.0000   -0.0000
       3      0.0000    0.0000    0.0000    0.0000    0.0000   -0.0000
       4     -0.0000    0.0000   -0.0000    0.0000   -0.0000    0.0000
       5     -0.0000   -0.0000    0.0000   -0.0000    0.0000   -0.0000
       6     -0.0000   -0.0000   -0.0000    0.0000   -0.0000    0.0000
-------------------------------------------------------------------------------


  Elastic Compliance Matrix: (Units=1/GPa)

-------------------------------------------------------------------------------
  Indices      1         2         3         4         5         6    
-------------------------------------------------------------------------------
       1  ****************************** -0.000000 -0.000000  0.000000
       2  ****************************** -0.000000 -0.000000  0.000000
       3  ****************************** -0.000000 -0.000000  0.000000
       4    0.000000 -0.000000  0.000000**********  0.000000 -0.000000
       5    0.000000  0.000000 -0.000000  0.000000**********  0.000000
       6    0.000000  0.000000  0.000000 -0.000000  0.000000**********
-------------------------------------------------------------------------------

  Mechanical properties :

-------------------------------------------------------------------------------
  Convention :                    Reuss         Voigt         Hill
-------------------------------------------------------------------------------
  Bulk  Modulus (GPa)     =       0.00000       0.00000       0.00000
  Shear Modulus (GPa)     =       0.00001       0.00001       0.00001
-------------------------------------------------------------------------------
  Velocity S-wave (km/s)  =       0.08688       0.08689       0.08688
  Velocity P-wave (km/s)  =       0.12339       0.12340       0.12339
-------------------------------------------------------------------------------
  Compressibility (1/GPa) = *************
-------------------------------------------------------------------------------
  Stress axis :                     x             y             z
-------------------------------------------------------------------------------
  Youngs Moduli (GPa)     =       0.00001       0.00001       0.00001
-------------------------------------------------------------------------------
  Poissons Ratio (x)      =                     0.01422       0.01422
  Poissons Ratio (y)      =       0.01422                     0.01422
  Poissons Ratio (z)      =       0.01422       0.01422
-------------------------------------------------------------------------------


  Piezoelectric Strain Matrix: (Units=C/m**2)

-------------------------------------------------------------------------------
  Indices      1         2         3         4         5         6    
-------------------------------------------------------------------------------
       x    -0.00000  -0.00000  -0.00000  -0.00000  -0.00000  -0.00000
       y    -0.00000  -0.00000  -0.00000  -0.00000  -0.00000  -0.00000
       z    -0.00000  -0.00000  -0.00000  -0.00000  -0.00000  -0.00000
-------------------------------------------------------------------------------


  Piezoelectric Stress Matrix: (Units=10**-11 C/N)

-------------------------------------------------------------------------------
  Indices      1         2         3         4         5         6    
-------------------------------------------------------------------------------
       x     0.00000   0.00000   0.00000   0.00000   0.00000   0.00000
       y     0.00000   0.00000   0.00000   0.00000   0.00000   0.00000
       z     0.00000   0.00000   0.00000   0.00000   0.00000   0.00000
-------------------------------------------------------------------------------


  Static dielectric constant tensor : 

-------------------------------------------------------------------------------
              x         y         z
-------------------------------------------------------------------------------
       x     1.00000   0.00000   0.00000
       y     0.00000   1.00000   0.00000
       z     0.00000   0.00000   1.00000
--------------------------------------------------------------------------------

  Static refractive indices : 

-------------------------------------------------------------------------------
    1 =    1.00000      2 =    1.00000      3 =    1.00000
-------------------------------------------------------------------------------


  Phonon Calculation : 

  K direction for n-a correction at gamma =  1.00000  1.00000  1.00000

  Number of k points for this configuration =        1

--------------------------------------------------------------------------------
  K point      1 =   0.000000  0.000000  0.000000  Weight =    1.000
--------------------------------------------------------------------------------

 Frequencies (cm-1) and Eigenvectors : 

 Frequency      -5.0036   -5.0036   -5.0036   -0.0000   -0.0000    0.0000
 IR Intensity    0.0000    0.0000    0.0000    0.0000    0.0000    0.0000
    in X         0.0000    0.0000    0.0000    0.0000    0.0000    0.0000
    in Y         0.0000    0.0000    0.0000    0.0000    0.0000    0.0000
    in Z         0.0000    0.0000    0.0000    0.0000    0.0000    0.0000
 Raman Intsty    0.0000    0.0000    0.0000    0.0000    0.0000    0.0000

     1 x       0.080147 -0.036137 -0.492210 -0.029092  0.447081  0.221973
     1 y      -0.268189  0.380558  0.182347  0.033400 -0.220108  0.447702
     1 z       0.188042 -0.344420  0.309862 -0.498034 -0.040877  0.017058
     2 x       0.188701  0.463013 -0.003267 -0.029092  0.447081  0.221973
     2 y      -0.376743 -0.118593 -0.306595  0.033400 -0.220108  0.447702
     2 z      -0.188042  0.344420 -0.309862 -0.498034 -0.040877  0.017058
     3 x      -0.188701 -0.463013  0.003267 -0.029092  0.447081  0.221973
     3 y       0.268189 -0.380558 -0.182347  0.033400 -0.220108  0.447702
     3 z       0.456890  0.082456 -0.185615 -0.498034 -0.040877  0.017058
     4 x      -0.080147  0.036137  0.492210 -0.029092  0.447081  0.221973
     4 y       0.376743  0.118593  0.306595  0.033400 -0.220108  0.447702
     4 z      -0.456890 -0.082456  0.185615 -0.498034 -0.040877  0.017058


 Frequency      21.4103   21.4103   30.6894   30.6894   30.6894   43.6888
 IR Intensity    0.0000    0.0000    0.0000    0.0000    0.0000    0.0000
    in X         0.0000    0.0000    0.0000    0.0000    0.0000    0.0000
    in Y         0.0000    0.0000    0.0000    0.0000    0.0000    0.0000
    in Z         0.0000    0.0000    0.0000    0.0000    0.0000    0.0000
 Raman Intsty    0.0000    0.0000    0.0000    0.0000    0.0000    0.0000

     1 x      -0.353553 -0.204124  0.231515  0.363723 -0.253193 -0.288675
     1 y       0.353553 -0.204124  0.451818 -0.081714 -0.197948 -0.288675
     1 z      -0.000000  0.408248  0.402551  0.223299  0.195168 -0.288675
     2 x       0.353553  0.204124 -0.049267  0.305013  0.393115  0.288675
     2 y      -0.353553  0.204124  0.171036 -0.140424  0.448361  0.288675
     2 z      -0.000000  0.408248 -0.402551 -0.223299 -0.195168 -0.288675
     3 x       0.353553  0.204124  0.049267 -0.305013 -0.393115  0.288675
     3 y       0.353553 -0.204124 -0.451818  0.081714  0.197948 -0.288675
     3 z       0.000000 -0.408248  0.220303 -0.445437  0.055246  0.288675
     4 x      -0.353553 -0.204124 -0.231515 -0.363723  0.253193 -0.288675
     4 y      -0.353553  0.204124 -0.171036  0.140424 -0.448361  0.288675
     4 z       0.000000 -0.408248 -0.220303  0.445437 -0.055246  0.288675





  Thermal conductivity: 

  Lorentzian broadening factor =     5.5696

--------------------------------------------------------------------------------
 Mode    : Frequency (cm-1)         Thermal conductivity                        
--------------------------------------------------------------------------------
     7       21.4103                  0.01988637
     8       21.4103                  0.03439812
     9       30.6894                  0.05826877
    10       30.6894                  0.02261904
    11       30.6894                  0.00661977
    12       43.6888                  0.00000651
--------------------------------------------------------------------------------

--------------------------------------------------------------------------------
  Phonon properties (per mole of unit cells): Temperature =      0.000 K
--------------------------------------------------------------------------------
  Zero point energy            =        0.011070 eV
--------------------------------------------------------------------------------

  Phonon density of states : 

--------------------------------------------------------------------------------
 Frequency (cm-1) Density of States                                             
--------------------------------------------------------------------------------
    0.00000 |********************                                          0.143
    0.68264 |                                                              0.000
    1.36528 |                                                              0.000
    2.04792 |                                                              0.000
    2.73055 |                                                              0.000
    3.41319 |                                                              0.000
    4.09583 |                                                              0.000
    4.77847 |                                                              0.000
    5.46111 |                                                              0.000
    6.14375 |                                                              0.000
    6.82638 |                                                              0.000
    7.50902 |                                                              0.000
    8.19166 |                                                              0.000
    8.87430 |                                                              0.000
    9.55694 |                                                              0.000
   10.23958 |                                                              0.000
   10.92222 |                                                              0.000
   11.60485 |                                                              0.000
   12.28749 |                                                              0.000
   12.97013 |                                                              0.000
   13.65277 |                                                              0.000
   14.33541 |                                                              0.000
   15.01805 |                                                              0.000
   15.70068 |                                                              0.000
   16.38332 |                                                              0.000
   17.06596 |                                                              0.000
   17.74860 |                                                              0.000
   18.43124 |                                                              0.000
   19.11388 |                                                              0.000
   19.79651 |                                                              0.000
   20.47915 |                                                              0.000
   21.16179 |****************************************                      0.286
   21.84443 |                                                              0.000
   22.52707 |                                                              0.000
   23.20971 |                                                              0.000
   23.89235 |                                                              0.000
   24.57498 |                                                              0.000
   25.25762 |                                                              0.000
   25.94026 |                                                              0.000
   26.62290 |                                                              0.000
   27.30554 |                                                              0.000
   27.98818 |                                                              0.000
   28.67081 |                                                              0.000
   29.35345 |                                                              0.000
   30.03609 |************************************************************  0.429
   30.71873 |                                                              0.000
   31.40137 |                                                              0.000
   32.08401 |                                                              0.000
   32.76665 |                                                              0.000
   33.44928 |                                                              0.000
   34.13192 |                                                              0.000
   34.81456 |                                                              0.000
   35.49720 |                                                              0.000
   36.17984 |                                                              0.000
   36.86248 |                                                              0.000
   37.54511 |                                                              0.000
   38.22775 |                                                              0.000
   38.91039 |                                                              0.000
   39.59303 |                                                              0.000
   40.27567 |                                                              0.000
   40.95831 |                                                              0.000
   41.64095 |                                                              0.000
   42.32358 |                                                              0.000
   43.00622 |********************                                          0.143
--------------------------------------------------------------------------------



  XYZ File written as gulp.xyz                                


  Time to end of properties =       0.0040 seconds


  Peak dynamic memory used =       0.47 MB 


  Timing analysis for GULP :

--------------------------------------------------------------------------------
  Task / Subroutine                                          Time (Seconds)
--------------------------------------------------------------------------------
--------------------------------------------------------------------------------
  Total CPU time                                                  0.0040
--------------------------------------------------------------------------------


  Job Finished at 00:46.42 27th January    2013                               

