LAMMPS data file. CGCMM style. atom_style full generated by VMD/TopoTools v1.2 on Wed Jul 03 00:40:31 EDT 2013
 320 atoms
 256 bonds
 0 angles
 0 dihedrals
 0 impropers
 2 atom types
 1 bond types
 0 angle types
 0 dihedral types
 0 improper types
 -8.297002 8.317403  xlo xhi
 -8.145501 8.182899  ylo yhi
 -7.201300 7.173500  zlo zhi

# Pair Coeffs
#
# 1  CT
# 2  HC

# Bond Coeffs
#
# 1  

 Masses

 1 12.011000 # CT
 2 1.008000 # HC

 Atoms

1 1 1 -0.240000 -6.197200 -6.116951 -5.374950 # CT ALK
2 1 2 0.060000 -5.332201 -6.138950 -4.770950 # HC ALK
3 1 2 0.060000 -7.108202 -6.150951 -4.786949 # HC ALK
4 1 2 0.060000 -6.256200 -5.248951 -6.037950 # HC ALK
5 1 2 0.060000 -6.258201 -6.959951 -5.981948 # HC ALK
6 1 1 -0.240000 -6.197200 -6.116951 -1.781250 # CT ALK
7 1 2 0.060000 -5.332201 -6.138950 -1.177250 # HC ALK
8 1 2 0.060000 -7.108202 -6.150951 -1.193249 # HC ALK
9 1 2 0.060000 -6.256200 -5.248951 -2.444250 # HC ALK
10 1 2 0.060000 -6.258201 -6.959951 -2.388248 # HC ALK
11 1 1 -0.240000 -6.197200 -6.116951 1.812450 # CT ALK
12 1 2 0.060000 -5.332201 -6.138950 2.416450 # HC ALK
13 1 2 0.060000 -7.108202 -6.150951 2.400451 # HC ALK
14 1 2 0.060000 -6.256200 -5.248951 1.149450 # HC ALK
15 1 2 0.060000 -6.258201 -6.959951 1.205452 # HC ALK
16 1 1 -0.240000 -6.197200 -6.116951 5.406150 # CT ALK
17 1 2 0.060000 -5.332201 -6.138950 6.010150 # HC ALK
18 1 2 0.060000 -7.108202 -6.150951 5.994152 # HC ALK
19 1 2 0.060000 -6.256200 -5.248951 4.743150 # HC ALK
20 1 2 0.060000 -6.258201 -6.959951 4.799152 # HC ALK
21 1 1 -0.240000 -6.197200 -2.034851 -5.374950 # CT ALK
22 1 2 0.060000 -5.332201 -2.056850 -4.770950 # HC ALK
23 1 2 0.060000 -7.108202 -2.068851 -4.786949 # HC ALK
24 1 2 0.060000 -6.256200 -1.166851 -6.037950 # HC ALK
25 1 2 0.060000 -6.258201 -2.877851 -5.981948 # HC ALK
26 1 1 -0.240000 -6.197200 -2.034851 -1.781250 # CT ALK
27 1 2 0.060000 -5.332201 -2.056850 -1.177250 # HC ALK
28 1 2 0.060000 -7.108202 -2.068851 -1.193249 # HC ALK
29 1 2 0.060000 -6.256200 -1.166851 -2.444250 # HC ALK
30 1 2 0.060000 -6.258201 -2.877851 -2.388248 # HC ALK
31 1 1 -0.240000 -6.197200 -2.034851 1.812450 # CT ALK
32 1 2 0.060000 -5.332201 -2.056850 2.416450 # HC ALK
33 1 2 0.060000 -7.108202 -2.068851 2.400451 # HC ALK
34 1 2 0.060000 -6.256200 -1.166851 1.149450 # HC ALK
35 1 2 0.060000 -6.258201 -2.877851 1.205452 # HC ALK
36 1 1 -0.240000 -6.197200 -2.034851 5.406150 # CT ALK
37 1 2 0.060000 -5.332201 -2.056850 6.010150 # HC ALK
38 1 2 0.060000 -7.108202 -2.068851 5.994152 # HC ALK
39 1 2 0.060000 -6.256200 -1.166851 4.743150 # HC ALK
40 1 2 0.060000 -6.258201 -2.877851 4.799152 # HC ALK
41 1 1 -0.240000 -6.197200 2.047249 -5.374950 # CT ALK
42 1 2 0.060000 -5.332201 2.025249 -4.770950 # HC ALK
43 1 2 0.060000 -7.108202 2.013248 -4.786949 # HC ALK
44 1 2 0.060000 -6.256200 2.915249 -6.037950 # HC ALK
45 1 2 0.060000 -6.258201 1.204248 -5.981948 # HC ALK
46 1 1 -0.240000 -6.197200 2.047249 -1.781250 # CT ALK
47 1 2 0.060000 -5.332201 2.025249 -1.177250 # HC ALK
48 1 2 0.060000 -7.108202 2.013248 -1.193249 # HC ALK
49 1 2 0.060000 -6.256200 2.915249 -2.444250 # HC ALK
50 1 2 0.060000 -6.258201 1.204248 -2.388248 # HC ALK
51 1 1 -0.240000 -6.197200 2.047249 1.812450 # CT ALK
52 1 2 0.060000 -5.332201 2.025249 2.416450 # HC ALK
53 1 2 0.060000 -7.108202 2.013248 2.400451 # HC ALK
54 1 2 0.060000 -6.256200 2.915249 1.149450 # HC ALK
55 1 2 0.060000 -6.258201 1.204248 1.205452 # HC ALK
56 1 1 -0.240000 -6.197200 2.047249 5.406150 # CT ALK
57 1 2 0.060000 -5.332201 2.025249 6.010150 # HC ALK
58 1 2 0.060000 -7.108202 2.013248 5.994152 # HC ALK
59 1 2 0.060000 -6.256200 2.915249 4.743150 # HC ALK
60 1 2 0.060000 -6.258201 1.204248 4.799152 # HC ALK
61 1 1 -0.240000 -6.197200 6.129349 -5.374950 # CT ALK
62 1 2 0.060000 -5.332201 6.107349 -4.770950 # HC ALK
63 1 2 0.060000 -7.108202 6.095348 -4.786949 # HC ALK
64 1 2 0.060000 -6.256200 6.997349 -6.037950 # HC ALK
65 1 2 0.060000 -6.258201 5.286348 -5.981948 # HC ALK
66 1 1 -0.240000 -6.197200 6.129349 -1.781250 # CT ALK
67 1 2 0.060000 -5.332201 6.107349 -1.177250 # HC ALK
68 1 2 0.060000 -7.108202 6.095348 -1.193249 # HC ALK
69 1 2 0.060000 -6.256200 6.997349 -2.444250 # HC ALK
70 1 2 0.060000 -6.258201 5.286348 -2.388248 # HC ALK
71 1 1 -0.240000 -6.197200 6.129349 1.812450 # CT ALK
72 1 2 0.060000 -5.332201 6.107349 2.416450 # HC ALK
73 1 2 0.060000 -7.108202 6.095348 2.400451 # HC ALK
74 1 2 0.060000 -6.256200 6.997349 1.149450 # HC ALK
75 1 2 0.060000 -6.258201 5.286348 1.205452 # HC ALK
76 1 1 -0.240000 -6.197200 6.129349 5.406150 # CT ALK
77 1 2 0.060000 -5.332201 6.107349 6.010150 # HC ALK
78 1 2 0.060000 -7.108202 6.095348 5.994152 # HC ALK
79 1 2 0.060000 -6.256200 6.997349 4.743150 # HC ALK
80 1 2 0.060000 -6.258201 5.286348 4.799152 # HC ALK
81 1 1 -0.240000 -2.043599 -6.116951 -5.374950 # CT ALK
82 1 2 0.060000 -1.178600 -6.138950 -4.770950 # HC ALK
83 1 2 0.060000 -2.954601 -6.150951 -4.786949 # HC ALK
84 1 2 0.060000 -2.102599 -5.248951 -6.037950 # HC ALK
85 1 2 0.060000 -2.104600 -6.959951 -5.981948 # HC ALK
86 1 1 -0.240000 -2.043599 -6.116951 -1.781250 # CT ALK
87 1 2 0.060000 -1.178600 -6.138950 -1.177250 # HC ALK
88 1 2 0.060000 -2.954601 -6.150951 -1.193249 # HC ALK
89 1 2 0.060000 -2.102599 -5.248951 -2.444250 # HC ALK
90 1 2 0.060000 -2.104600 -6.959951 -2.388248 # HC ALK
91 1 1 -0.240000 -2.043599 -6.116951 1.812450 # CT ALK
92 1 2 0.060000 -1.178600 -6.138950 2.416450 # HC ALK
93 1 2 0.060000 -2.954601 -6.150951 2.400451 # HC ALK
94 1 2 0.060000 -2.102599 -5.248951 1.149450 # HC ALK
95 1 2 0.060000 -2.104600 -6.959951 1.205452 # HC ALK
96 1 1 -0.240000 -2.043599 -6.116951 5.406150 # CT ALK
97 1 2 0.060000 -1.178600 -6.138950 6.010150 # HC ALK
98 1 2 0.060000 -2.954601 -6.150951 5.994152 # HC ALK
99 1 2 0.060000 -2.102599 -5.248951 4.743150 # HC ALK
100 1 2 0.060000 -2.104600 -6.959951 4.799152 # HC ALK
101 1 1 -0.240000 -2.043599 -2.034851 -5.374950 # CT ALK
102 1 2 0.060000 -1.178600 -2.056850 -4.770950 # HC ALK
103 1 2 0.060000 -2.954601 -2.068851 -4.786949 # HC ALK
104 1 2 0.060000 -2.102599 -1.166851 -6.037950 # HC ALK
105 1 2 0.060000 -2.104600 -2.877851 -5.981948 # HC ALK
106 1 1 -0.240000 -2.043599 -2.034851 -1.781250 # CT ALK
107 1 2 0.060000 -1.178600 -2.056850 -1.177250 # HC ALK
108 1 2 0.060000 -2.954601 -2.068851 -1.193249 # HC ALK
109 1 2 0.060000 -2.102599 -1.166851 -2.444250 # HC ALK
110 1 2 0.060000 -2.104600 -2.877851 -2.388248 # HC ALK
111 1 1 -0.240000 -2.043599 -2.034851 1.812450 # CT ALK
112 1 2 0.060000 -1.178600 -2.056850 2.416450 # HC ALK
113 1 2 0.060000 -2.954601 -2.068851 2.400451 # HC ALK
114 1 2 0.060000 -2.102599 -1.166851 1.149450 # HC ALK
115 1 2 0.060000 -2.104600 -2.877851 1.205452 # HC ALK
116 1 1 -0.240000 -2.043599 -2.034851 5.406150 # CT ALK
117 1 2 0.060000 -1.178600 -2.056850 6.010150 # HC ALK
118 1 2 0.060000 -2.954601 -2.068851 5.994152 # HC ALK
119 1 2 0.060000 -2.102599 -1.166851 4.743150 # HC ALK
120 1 2 0.060000 -2.104600 -2.877851 4.799152 # HC ALK
121 1 1 -0.240000 -2.043599 2.047249 -5.374950 # CT ALK
122 1 2 0.060000 -1.178600 2.025249 -4.770950 # HC ALK
123 1 2 0.060000 -2.954601 2.013248 -4.786949 # HC ALK
124 1 2 0.060000 -2.102599 2.915249 -6.037950 # HC ALK
125 1 2 0.060000 -2.104600 1.204248 -5.981948 # HC ALK
126 1 1 -0.240000 -2.043599 2.047249 -1.781250 # CT ALK
127 1 2 0.060000 -1.178600 2.025249 -1.177250 # HC ALK
128 1 2 0.060000 -2.954601 2.013248 -1.193249 # HC ALK
129 1 2 0.060000 -2.102599 2.915249 -2.444250 # HC ALK
130 1 2 0.060000 -2.104600 1.204248 -2.388248 # HC ALK
131 1 1 -0.240000 -2.043599 2.047249 1.812450 # CT ALK
132 1 2 0.060000 -1.178600 2.025249 2.416450 # HC ALK
133 1 2 0.060000 -2.954601 2.013248 2.400451 # HC ALK
134 1 2 0.060000 -2.102599 2.915249 1.149450 # HC ALK
135 1 2 0.060000 -2.104600 1.204248 1.205452 # HC ALK
136 1 1 -0.240000 -2.043599 2.047249 5.406150 # CT ALK
137 1 2 0.060000 -1.178600 2.025249 6.010150 # HC ALK
138 1 2 0.060000 -2.954601 2.013248 5.994152 # HC ALK
139 1 2 0.060000 -2.102599 2.915249 4.743150 # HC ALK
140 1 2 0.060000 -2.104600 1.204248 4.799152 # HC ALK
141 1 1 -0.240000 -2.043599 6.129349 -5.374950 # CT ALK
142 1 2 0.060000 -1.178600 6.107349 -4.770950 # HC ALK
143 1 2 0.060000 -2.954601 6.095348 -4.786949 # HC ALK
144 1 2 0.060000 -2.102599 6.997349 -6.037950 # HC ALK
145 1 2 0.060000 -2.104600 5.286348 -5.981948 # HC ALK
146 1 1 -0.240000 -2.043599 6.129349 -1.781250 # CT ALK
147 1 2 0.060000 -1.178600 6.107349 -1.177250 # HC ALK
148 1 2 0.060000 -2.954601 6.095348 -1.193249 # HC ALK
149 1 2 0.060000 -2.102599 6.997349 -2.444250 # HC ALK
150 1 2 0.060000 -2.104600 5.286348 -2.388248 # HC ALK
151 1 1 -0.240000 -2.043599 6.129349 1.812450 # CT ALK
152 1 2 0.060000 -1.178600 6.107349 2.416450 # HC ALK
153 1 2 0.060000 -2.954601 6.095348 2.400451 # HC ALK
154 1 2 0.060000 -2.102599 6.997349 1.149450 # HC ALK
155 1 2 0.060000 -2.104600 5.286348 1.205452 # HC ALK
156 1 1 -0.240000 -2.043599 6.129349 5.406150 # CT ALK
157 1 2 0.060000 -1.178600 6.107349 6.010150 # HC ALK
158 1 2 0.060000 -2.954601 6.095348 5.994152 # HC ALK
159 1 2 0.060000 -2.102599 6.997349 4.743150 # HC ALK
160 1 2 0.060000 -2.104600 5.286348 4.799152 # HC ALK
161 1 1 -0.240000 2.110002 -6.116951 -5.374950 # CT ALK
162 1 2 0.060000 2.975002 -6.138950 -4.770950 # HC ALK
163 1 2 0.060000 1.199001 -6.150951 -4.786949 # HC ALK
164 1 2 0.060000 2.051002 -5.248951 -6.037950 # HC ALK
165 1 2 0.060000 2.049001 -6.959951 -5.981948 # HC ALK
166 1 1 -0.240000 2.110002 -6.116951 -1.781250 # CT ALK
167 1 2 0.060000 2.975002 -6.138950 -1.177250 # HC ALK
168 1 2 0.060000 1.199001 -6.150951 -1.193249 # HC ALK
169 1 2 0.060000 2.051002 -5.248951 -2.444250 # HC ALK
170 1 2 0.060000 2.049001 -6.959951 -2.388248 # HC ALK
171 1 1 -0.240000 2.110002 -6.116951 1.812450 # CT ALK
172 1 2 0.060000 2.975002 -6.138950 2.416450 # HC ALK
173 1 2 0.060000 1.199001 -6.150951 2.400451 # HC ALK
174 1 2 0.060000 2.051002 -5.248951 1.149450 # HC ALK
175 1 2 0.060000 2.049001 -6.959951 1.205452 # HC ALK
176 1 1 -0.240000 2.110002 -6.116951 5.406150 # CT ALK
177 1 2 0.060000 2.975002 -6.138950 6.010150 # HC ALK
178 1 2 0.060000 1.199001 -6.150951 5.994152 # HC ALK
179 1 2 0.060000 2.051002 -5.248951 4.743150 # HC ALK
180 1 2 0.060000 2.049001 -6.959951 4.799152 # HC ALK
181 1 1 -0.240000 2.110002 -2.034851 -5.374950 # CT ALK
182 1 2 0.060000 2.975002 -2.056850 -4.770950 # HC ALK
183 1 2 0.060000 1.199001 -2.068851 -4.786949 # HC ALK
184 1 2 0.060000 2.051002 -1.166851 -6.037950 # HC ALK
185 1 2 0.060000 2.049001 -2.877851 -5.981948 # HC ALK
186 1 1 -0.240000 2.110002 -2.034851 -1.781250 # CT ALK
187 1 2 0.060000 2.975002 -2.056850 -1.177250 # HC ALK
188 1 2 0.060000 1.199001 -2.068851 -1.193249 # HC ALK
189 1 2 0.060000 2.051002 -1.166851 -2.444250 # HC ALK
190 1 2 0.060000 2.049001 -2.877851 -2.388248 # HC ALK
191 1 1 -0.240000 2.110002 -2.034851 1.812450 # CT ALK
192 1 2 0.060000 2.975002 -2.056850 2.416450 # HC ALK
193 1 2 0.060000 1.199001 -2.068851 2.400451 # HC ALK
194 1 2 0.060000 2.051002 -1.166851 1.149450 # HC ALK
195 1 2 0.060000 2.049001 -2.877851 1.205452 # HC ALK
196 1 1 -0.240000 2.110002 -2.034851 5.406150 # CT ALK
197 1 2 0.060000 2.975002 -2.056850 6.010150 # HC ALK
198 1 2 0.060000 1.199001 -2.068851 5.994152 # HC ALK
199 1 2 0.060000 2.051002 -1.166851 4.743150 # HC ALK
200 1 2 0.060000 2.049001 -2.877851 4.799152 # HC ALK
201 1 1 -0.240000 2.110002 2.047249 -5.374950 # CT ALK
202 1 2 0.060000 2.975002 2.025249 -4.770950 # HC ALK
203 1 2 0.060000 1.199001 2.013248 -4.786949 # HC ALK
204 1 2 0.060000 2.051002 2.915249 -6.037950 # HC ALK
205 1 2 0.060000 2.049001 1.204248 -5.981948 # HC ALK
206 1 1 -0.240000 2.110002 2.047249 -1.781250 # CT ALK
207 1 2 0.060000 2.975002 2.025249 -1.177250 # HC ALK
208 1 2 0.060000 1.199001 2.013248 -1.193249 # HC ALK
209 1 2 0.060000 2.051002 2.915249 -2.444250 # HC ALK
210 1 2 0.060000 2.049001 1.204248 -2.388248 # HC ALK
211 1 1 -0.240000 2.110002 2.047249 1.812450 # CT ALK
212 1 2 0.060000 2.975002 2.025249 2.416450 # HC ALK
213 1 2 0.060000 1.199001 2.013248 2.400451 # HC ALK
214 1 2 0.060000 2.051002 2.915249 1.149450 # HC ALK
215 1 2 0.060000 2.049001 1.204248 1.205452 # HC ALK
216 1 1 -0.240000 2.110002 2.047249 5.406150 # CT ALK
217 1 2 0.060000 2.975002 2.025249 6.010150 # HC ALK
218 1 2 0.060000 1.199001 2.013248 5.994152 # HC ALK
219 1 2 0.060000 2.051002 2.915249 4.743150 # HC ALK
220 1 2 0.060000 2.049001 1.204248 4.799152 # HC ALK
221 1 1 -0.240000 2.110002 6.129349 -5.374950 # CT ALK
222 1 2 0.060000 2.975002 6.107349 -4.770950 # HC ALK
223 1 2 0.060000 1.199001 6.095348 -4.786949 # HC ALK
224 1 2 0.060000 2.051002 6.997349 -6.037950 # HC ALK
225 1 2 0.060000 2.049001 5.286348 -5.981948 # HC ALK
226 1 1 -0.240000 2.110002 6.129349 -1.781250 # CT ALK
227 1 2 0.060000 2.975002 6.107349 -1.177250 # HC ALK
228 1 2 0.060000 1.199001 6.095348 -1.193249 # HC ALK
229 1 2 0.060000 2.051002 6.997349 -2.444250 # HC ALK
230 1 2 0.060000 2.049001 5.286348 -2.388248 # HC ALK
231 1 1 -0.240000 2.110002 6.129349 1.812450 # CT ALK
232 1 2 0.060000 2.975002 6.107349 2.416450 # HC ALK
233 1 2 0.060000 1.199001 6.095348 2.400451 # HC ALK
234 1 2 0.060000 2.051002 6.997349 1.149450 # HC ALK
235 1 2 0.060000 2.049001 5.286348 1.205452 # HC ALK
236 1 1 -0.240000 2.110002 6.129349 5.406150 # CT ALK
237 1 2 0.060000 2.975002 6.107349 6.010150 # HC ALK
238 1 2 0.060000 1.199001 6.095348 5.994152 # HC ALK
239 1 2 0.060000 2.051002 6.997349 4.743150 # HC ALK
240 1 2 0.060000 2.049001 5.286348 4.799152 # HC ALK
241 1 1 -0.240000 6.263603 -6.116951 -5.374950 # CT ALK
242 1 2 0.060000 7.128603 -6.138950 -4.770950 # HC ALK
243 1 2 0.060000 5.352602 -6.150951 -4.786949 # HC ALK
244 1 2 0.060000 6.204603 -5.248951 -6.037950 # HC ALK
245 1 2 0.060000 6.202602 -6.959951 -5.981948 # HC ALK
246 1 1 -0.240000 6.263603 -6.116951 -1.781250 # CT ALK
247 1 2 0.060000 7.128603 -6.138950 -1.177250 # HC ALK
248 1 2 0.060000 5.352602 -6.150951 -1.193249 # HC ALK
249 1 2 0.060000 6.204603 -5.248951 -2.444250 # HC ALK
250 1 2 0.060000 6.202602 -6.959951 -2.388248 # HC ALK
251 1 1 -0.240000 6.263603 -6.116951 1.812450 # CT ALK
252 1 2 0.060000 7.128603 -6.138950 2.416450 # HC ALK
253 1 2 0.060000 5.352602 -6.150951 2.400451 # HC ALK
254 1 2 0.060000 6.204603 -5.248951 1.149450 # HC ALK
255 1 2 0.060000 6.202602 -6.959951 1.205452 # HC ALK
256 1 1 -0.240000 6.263603 -6.116951 5.406150 # CT ALK
257 1 2 0.060000 7.128603 -6.138950 6.010150 # HC ALK
258 1 2 0.060000 5.352602 -6.150951 5.994152 # HC ALK
259 1 2 0.060000 6.204603 -5.248951 4.743150 # HC ALK
260 1 2 0.060000 6.202602 -6.959951 4.799152 # HC ALK
261 1 1 -0.240000 6.263603 -2.034851 -5.374950 # CT ALK
262 1 2 0.060000 7.128603 -2.056850 -4.770950 # HC ALK
263 1 2 0.060000 5.352602 -2.068851 -4.786949 # HC ALK
264 1 2 0.060000 6.204603 -1.166851 -6.037950 # HC ALK
265 1 2 0.060000 6.202602 -2.877851 -5.981948 # HC ALK
266 1 1 -0.240000 6.263603 -2.034851 -1.781250 # CT ALK
267 1 2 0.060000 7.128603 -2.056850 -1.177250 # HC ALK
268 1 2 0.060000 5.352602 -2.068851 -1.193249 # HC ALK
269 1 2 0.060000 6.204603 -1.166851 -2.444250 # HC ALK
270 1 2 0.060000 6.202602 -2.877851 -2.388248 # HC ALK
271 1 1 -0.240000 6.263603 -2.034851 1.812450 # CT ALK
272 1 2 0.060000 7.128603 -2.056850 2.416450 # HC ALK
273 1 2 0.060000 5.352602 -2.068851 2.400451 # HC ALK
274 1 2 0.060000 6.204603 -1.166851 1.149450 # HC ALK
275 1 2 0.060000 6.202602 -2.877851 1.205452 # HC ALK
276 1 1 -0.240000 6.263603 -2.034851 5.406150 # CT ALK
277 1 2 0.060000 7.128603 -2.056850 6.010150 # HC ALK
278 1 2 0.060000 5.352602 -2.068851 5.994152 # HC ALK
279 1 2 0.060000 6.204603 -1.166851 4.743150 # HC ALK
280 1 2 0.060000 6.202602 -2.877851 4.799152 # HC ALK
281 1 1 -0.240000 6.263603 2.047249 -5.374950 # CT ALK
282 1 2 0.060000 7.128603 2.025249 -4.770950 # HC ALK
283 1 2 0.060000 5.352602 2.013248 -4.786949 # HC ALK
284 1 2 0.060000 6.204603 2.915249 -6.037950 # HC ALK
285 1 2 0.060000 6.202602 1.204248 -5.981948 # HC ALK
286 1 1 -0.240000 6.263603 2.047249 -1.781250 # CT ALK
287 1 2 0.060000 7.128603 2.025249 -1.177250 # HC ALK
288 1 2 0.060000 5.352602 2.013248 -1.193249 # HC ALK
289 1 2 0.060000 6.204603 2.915249 -2.444250 # HC ALK
290 1 2 0.060000 6.202602 1.204248 -2.388248 # HC ALK
291 1 1 -0.240000 6.263603 2.047249 1.812450 # CT ALK
292 1 2 0.060000 7.128603 2.025249 2.416450 # HC ALK
293 1 2 0.060000 5.352602 2.013248 2.400451 # HC ALK
294 1 2 0.060000 6.204603 2.915249 1.149450 # HC ALK
295 1 2 0.060000 6.202602 1.204248 1.205452 # HC ALK
296 1 1 -0.240000 6.263603 2.047249 5.406150 # CT ALK
297 1 2 0.060000 7.128603 2.025249 6.010150 # HC ALK
298 1 2 0.060000 5.352602 2.013248 5.994152 # HC ALK
299 1 2 0.060000 6.204603 2.915249 4.743150 # HC ALK
300 1 2 0.060000 6.202602 1.204248 4.799152 # HC ALK
301 1 1 -0.240000 6.263603 6.129349 -5.374950 # CT ALK
302 1 2 0.060000 7.128603 6.107349 -4.770950 # HC ALK
303 1 2 0.060000 5.352602 6.095348 -4.786949 # HC ALK
304 1 2 0.060000 6.204603 6.997349 -6.037950 # HC ALK
305 1 2 0.060000 6.202602 5.286348 -5.981948 # HC ALK
306 1 1 -0.240000 6.263603 6.129349 -1.781250 # CT ALK
307 1 2 0.060000 7.128603 6.107349 -1.177250 # HC ALK
308 1 2 0.060000 5.352602 6.095348 -1.193249 # HC ALK
309 1 2 0.060000 6.204603 6.997349 -2.444250 # HC ALK
310 1 2 0.060000 6.202602 5.286348 -2.388248 # HC ALK
311 1 1 -0.240000 6.263603 6.129349 1.812450 # CT ALK
312 1 2 0.060000 7.128603 6.107349 2.416450 # HC ALK
313 1 2 0.060000 5.352602 6.095348 2.400451 # HC ALK
314 1 2 0.060000 6.204603 6.997349 1.149450 # HC ALK
315 1 2 0.060000 6.202602 5.286348 1.205452 # HC ALK
316 1 1 -0.240000 6.263603 6.129349 5.406150 # CT ALK
317 1 2 0.060000 7.128603 6.107349 6.010150 # HC ALK
318 1 2 0.060000 5.352602 6.095348 5.994152 # HC ALK
319 1 2 0.060000 6.204603 6.997349 4.743150 # HC ALK
320 1 2 0.060000 6.202602 5.286348 4.799152 # HC ALK

 Bonds

1 1 1 2
2 1 1 3
3 1 1 4
4 1 1 5
5 1 6 7
6 1 6 8
7 1 6 9
8 1 6 10
9 1 11 12
10 1 11 13
11 1 11 14
12 1 11 15
13 1 16 17
14 1 16 18
15 1 16 19
16 1 16 20
17 1 21 22
18 1 21 23
19 1 21 24
20 1 21 25
21 1 26 27
22 1 26 28
23 1 26 29
24 1 26 30
25 1 31 32
26 1 31 33
27 1 31 34
28 1 31 35
29 1 36 37
30 1 36 38
31 1 36 39
32 1 36 40
33 1 41 42
34 1 41 43
35 1 41 44
36 1 41 45
37 1 46 47
38 1 46 48
39 1 46 49
40 1 46 50
41 1 51 52
42 1 51 53
43 1 51 54
44 1 51 55
45 1 56 57
46 1 56 58
47 1 56 59
48 1 56 60
49 1 61 62
50 1 61 63
51 1 61 64
52 1 61 65
53 1 66 67
54 1 66 68
55 1 66 69
56 1 66 70
57 1 71 72
58 1 71 73
59 1 71 74
60 1 71 75
61 1 76 77
62 1 76 78
63 1 76 79
64 1 76 80
65 1 81 82
66 1 81 83
67 1 81 84
68 1 81 85
69 1 86 87
70 1 86 88
71 1 86 89
72 1 86 90
73 1 91 92
74 1 91 93
75 1 91 94
76 1 91 95
77 1 96 97
78 1 96 98
79 1 96 99
80 1 96 100
81 1 101 102
82 1 101 103
83 1 101 104
84 1 101 105
85 1 106 107
86 1 106 108
87 1 106 109
88 1 106 110
89 1 111 112
90 1 111 113
91 1 111 114
92 1 111 115
93 1 116 117
94 1 116 118
95 1 116 119
96 1 116 120
97 1 121 122
98 1 121 123
99 1 121 124
100 1 121 125
101 1 126 127
102 1 126 128
103 1 126 129
104 1 126 130
105 1 131 132
106 1 131 133
107 1 131 134
108 1 131 135
109 1 136 137
110 1 136 138
111 1 136 139
112 1 136 140
113 1 141 142
114 1 141 143
115 1 141 144
116 1 141 145
117 1 146 147
118 1 146 148
119 1 146 149
120 1 146 150
121 1 151 152
122 1 151 153
123 1 151 154
124 1 151 155
125 1 156 157
126 1 156 158
127 1 156 159
128 1 156 160
129 1 161 162
130 1 161 163
131 1 161 164
132 1 161 165
133 1 166 167
134 1 166 168
135 1 166 169
136 1 166 170
137 1 171 172
138 1 171 173
139 1 171 174
140 1 171 175
141 1 176 177
142 1 176 178
143 1 176 179
144 1 176 180
145 1 181 182
146 1 181 183
147 1 181 184
148 1 181 185
149 1 186 187
150 1 186 188
151 1 186 189
152 1 186 190
153 1 191 192
154 1 191 193
155 1 191 194
156 1 191 195
157 1 196 197
158 1 196 198
159 1 196 199
160 1 196 200
161 1 201 202
162 1 201 203
163 1 201 204
164 1 201 205
165 1 206 207
166 1 206 208
167 1 206 209
168 1 206 210
169 1 211 212
170 1 211 213
171 1 211 214
172 1 211 215
173 1 216 217
174 1 216 218
175 1 216 219
176 1 216 220
177 1 221 222
178 1 221 223
179 1 221 224
180 1 221 225
181 1 226 227
182 1 226 228
183 1 226 229
184 1 226 230
185 1 231 232
186 1 231 233
187 1 231 234
188 1 231 235
189 1 236 237
190 1 236 238
191 1 236 239
192 1 236 240
193 1 241 242
194 1 241 243
195 1 241 244
196 1 241 245
197 1 246 247
198 1 246 248
199 1 246 249
200 1 246 250
201 1 251 252
202 1 251 253
203 1 251 254
204 1 251 255
205 1 256 257
206 1 256 258
207 1 256 259
208 1 256 260
209 1 261 262
210 1 261 263
211 1 261 264
212 1 261 265
213 1 266 267
214 1 266 268
215 1 266 269
216 1 266 270
217 1 271 272
218 1 271 273
219 1 271 274
220 1 271 275
221 1 276 277
222 1 276 278
223 1 276 279
224 1 276 280
225 1 281 282
226 1 281 283
227 1 281 284
228 1 281 285
229 1 286 287
230 1 286 288
231 1 286 289
232 1 286 290
233 1 291 292
234 1 291 293
235 1 291 294
236 1 291 295
237 1 296 297
238 1 296 298
239 1 296 299
240 1 296 300
241 1 301 302
242 1 301 303
243 1 301 304
244 1 301 305
245 1 306 307
246 1 306 308
247 1 306 309
248 1 306 310
249 1 311 312
250 1 311 313
251 1 311 314
252 1 311 315
253 1 316 317
254 1 316 318
255 1 316 319
256 1 316 320

