LAMMPS data file. CGCMM style. atom_style full generated by VMD/TopoTools v1.2 on Wed Jul 03 01:10:37 EDT 2013
 396 atoms
 360 bonds
 648 angles
 648 dihedrals
 0 impropers
 2 atom types
 2 bond types
 3 angle types
 2 dihedral types
 0 improper types
 -9.845301 9.994302  xlo xhi
 -9.847090 10.084907  ylo yhi
 -8.422374 8.321830  zlo zhi

# Pair Coeffs
#
# 1  CT
# 2  HC

# Bond Coeffs
#
# 1  CT-CT
# 2  CT-HC

# Angle Coeffs
#
# 1  CT-CT-CT
# 2  CT-CT-HC
# 3  HC-CT-HC

# Dihedral Coeffs
#
# 1  HC-CT-CT-HC
# 2  CT-CT-CT-HC

 Masses

 1 12.011000 # CT
 2 1.008000 # HC

 Atoms

1 1 1 -0.180000 -7.533851 -5.548090 -6.223674 # CT ALK
2 1 2 0.060000 -8.619852 -5.580090 -6.442674 # HC ALK
3 1 2 0.060000 -6.974851 -5.813091 -7.168674 # HC ALK
4 1 2 0.060000 -7.348852 -4.505091 -5.997672 # HC ALK
5 1 1 -0.120000 -7.183851 -6.418091 -4.998673 # CT ALK
6 1 2 0.060000 -7.791851 -6.101091 -4.094672 # HC ALK
7 1 2 0.060000 -6.110851 -6.348091 -4.854672 # HC ALK
8 1 1 -0.180000 -7.486850 -7.893091 -5.347672 # CT ALK
9 1 2 0.060000 -8.577852 -8.046091 -5.543674 # HC ALK
10 1 2 0.060000 -6.964851 -8.286091 -6.245673 # HC ALK
11 1 2 0.060000 -7.244852 -8.545090 -4.477674 # HC ALK
12 1 1 -0.180000 -7.533851 -5.548090 -0.642273 # CT ALK
13 1 2 0.060000 -8.619852 -5.580090 -0.861273 # HC ALK
14 1 2 0.060000 -6.974851 -5.813091 -1.587273 # HC ALK
15 1 2 0.060000 -7.348852 -4.505091 -0.416271 # HC ALK
16 1 1 -0.120000 -7.183851 -6.418091 0.582727 # CT ALK
17 1 2 0.060000 -7.791851 -6.101091 1.486729 # HC ALK
18 1 2 0.060000 -6.110851 -6.348091 0.726728 # HC ALK
19 1 1 -0.180000 -7.486850 -7.893091 0.233728 # CT ALK
20 1 2 0.060000 -8.577852 -8.046091 0.037727 # HC ALK
21 1 2 0.060000 -6.964851 -8.286091 -0.664272 # HC ALK
22 1 2 0.060000 -7.244852 -8.545090 1.103727 # HC ALK
23 1 1 -0.180000 -7.533851 -5.548090 4.939128 # CT ALK
24 1 2 0.060000 -8.619852 -5.580090 4.720128 # HC ALK
25 1 2 0.060000 -6.974851 -5.813091 3.994128 # HC ALK
26 1 2 0.060000 -7.348852 -4.505091 5.165130 # HC ALK
27 1 1 -0.120000 -7.183851 -6.418091 6.164128 # CT ALK
28 1 2 0.060000 -7.791851 -6.101091 7.068130 # HC ALK
29 1 2 0.060000 -6.110851 -6.348091 6.308129 # HC ALK
30 1 1 -0.180000 -7.486850 -7.893091 5.815129 # CT ALK
31 1 2 0.060000 -8.577852 -8.046091 5.619128 # HC ALK
32 1 2 0.060000 -6.964851 -8.286091 4.917129 # HC ALK
33 1 2 0.060000 -7.244852 -8.545090 6.685128 # HC ALK
34 1 1 -0.180000 -7.533851 1.095909 -6.223674 # CT ALK
35 1 2 0.060000 -8.619852 1.063910 -6.442674 # HC ALK
36 1 2 0.060000 -6.974851 0.830908 -7.168674 # HC ALK
37 1 2 0.060000 -7.348852 2.138908 -5.997672 # HC ALK
38 1 1 -0.120000 -7.183851 0.225908 -4.998673 # CT ALK
39 1 2 0.060000 -7.791851 0.542908 -4.094672 # HC ALK
40 1 2 0.060000 -6.110851 0.295908 -4.854672 # HC ALK
41 1 1 -0.180000 -7.486850 -1.249092 -5.347672 # CT ALK
42 1 2 0.060000 -8.577852 -1.402092 -5.543674 # HC ALK
43 1 2 0.060000 -6.964851 -1.642092 -6.245673 # HC ALK
44 1 2 0.060000 -7.244852 -1.901091 -4.477674 # HC ALK
45 1 1 -0.180000 -7.533851 1.095909 -0.642273 # CT ALK
46 1 2 0.060000 -8.619852 1.063910 -0.861273 # HC ALK
47 1 2 0.060000 -6.974851 0.830908 -1.587273 # HC ALK
48 1 2 0.060000 -7.348852 2.138908 -0.416271 # HC ALK
49 1 1 -0.120000 -7.183851 0.225908 0.582727 # CT ALK
50 1 2 0.060000 -7.791851 0.542908 1.486729 # HC ALK
51 1 2 0.060000 -6.110851 0.295908 0.726728 # HC ALK
52 1 1 -0.180000 -7.486850 -1.249092 0.233728 # CT ALK
53 1 2 0.060000 -8.577852 -1.402092 0.037727 # HC ALK
54 1 2 0.060000 -6.964851 -1.642092 -0.664272 # HC ALK
55 1 2 0.060000 -7.244852 -1.901091 1.103727 # HC ALK
56 1 1 -0.180000 -7.533851 1.095909 4.939128 # CT ALK
57 1 2 0.060000 -8.619852 1.063910 4.720128 # HC ALK
58 1 2 0.060000 -6.974851 0.830908 3.994128 # HC ALK
59 1 2 0.060000 -7.348852 2.138908 5.165130 # HC ALK
60 1 1 -0.120000 -7.183851 0.225908 6.164128 # CT ALK
61 1 2 0.060000 -7.791851 0.542908 7.068130 # HC ALK
62 1 2 0.060000 -6.110851 0.295908 6.308129 # HC ALK
63 1 1 -0.180000 -7.486850 -1.249092 5.815129 # CT ALK
64 1 2 0.060000 -8.577852 -1.402092 5.619128 # HC ALK
65 1 2 0.060000 -6.964851 -1.642092 4.917129 # HC ALK
66 1 2 0.060000 -7.244852 -1.901091 6.685128 # HC ALK
67 1 1 -0.180000 -7.533851 7.739908 -6.223674 # CT ALK
68 1 2 0.060000 -8.619852 7.707909 -6.442674 # HC ALK
69 1 2 0.060000 -6.974851 7.474907 -7.168674 # HC ALK
70 1 2 0.060000 -7.348852 8.782907 -5.997672 # HC ALK
71 1 1 -0.120000 -7.183851 6.869907 -4.998673 # CT ALK
72 1 2 0.060000 -7.791851 7.186907 -4.094672 # HC ALK
73 1 2 0.060000 -6.110851 6.939907 -4.854672 # HC ALK
74 1 1 -0.180000 -7.486850 5.394907 -5.347672 # CT ALK
75 1 2 0.060000 -8.577852 5.241907 -5.543674 # HC ALK
76 1 2 0.060000 -6.964851 5.001907 -6.245673 # HC ALK
77 1 2 0.060000 -7.244852 4.742908 -4.477674 # HC ALK
78 1 1 -0.180000 -7.533851 7.739908 -0.642273 # CT ALK
79 1 2 0.060000 -8.619852 7.707909 -0.861273 # HC ALK
80 1 2 0.060000 -6.974851 7.474907 -1.587273 # HC ALK
81 1 2 0.060000 -7.348852 8.782907 -0.416271 # HC ALK
82 1 1 -0.120000 -7.183851 6.869907 0.582727 # CT ALK
83 1 2 0.060000 -7.791851 7.186907 1.486729 # HC ALK
84 1 2 0.060000 -6.110851 6.939907 0.726728 # HC ALK
85 1 1 -0.180000 -7.486850 5.394907 0.233728 # CT ALK
86 1 2 0.060000 -8.577852 5.241907 0.037727 # HC ALK
87 1 2 0.060000 -6.964851 5.001907 -0.664272 # HC ALK
88 1 2 0.060000 -7.244852 4.742908 1.103727 # HC ALK
89 1 1 -0.180000 -7.533851 7.739908 4.939128 # CT ALK
90 1 2 0.060000 -8.619852 7.707909 4.720128 # HC ALK
91 1 2 0.060000 -6.974851 7.474907 3.994128 # HC ALK
92 1 2 0.060000 -7.348852 8.782907 5.165130 # HC ALK
93 1 1 -0.120000 -7.183851 6.869907 6.164128 # CT ALK
94 1 2 0.060000 -7.791851 7.186907 7.068130 # HC ALK
95 1 2 0.060000 -6.110851 6.939907 6.308129 # HC ALK
96 1 1 -0.180000 -7.486850 5.394907 5.815129 # CT ALK
97 1 2 0.060000 -8.577852 5.241907 5.619128 # HC ALK
98 1 2 0.060000 -6.964851 5.001907 4.917129 # HC ALK
99 1 2 0.060000 -7.244852 4.742908 6.685128 # HC ALK
100 1 1 -0.180000 -2.573950 -5.548090 -6.223674 # CT ALK
101 1 2 0.060000 -3.659951 -5.580090 -6.442674 # HC ALK
102 1 2 0.060000 -2.014950 -5.813091 -7.168674 # HC ALK
103 1 2 0.060000 -2.388951 -4.505091 -5.997672 # HC ALK
104 1 1 -0.120000 -2.223950 -6.418091 -4.998673 # CT ALK
105 1 2 0.060000 -2.831950 -6.101091 -4.094672 # HC ALK
106 1 2 0.060000 -1.150950 -6.348091 -4.854672 # HC ALK
107 1 1 -0.180000 -2.526949 -7.893091 -5.347672 # CT ALK
108 1 2 0.060000 -3.617951 -8.046091 -5.543674 # HC ALK
109 1 2 0.060000 -2.004950 -8.286091 -6.245673 # HC ALK
110 1 2 0.060000 -2.284951 -8.545090 -4.477674 # HC ALK
111 1 1 -0.180000 -2.573950 -5.548090 -0.642273 # CT ALK
112 1 2 0.060000 -3.659951 -5.580090 -0.861273 # HC ALK
113 1 2 0.060000 -2.014950 -5.813091 -1.587273 # HC ALK
114 1 2 0.060000 -2.388951 -4.505091 -0.416271 # HC ALK
115 1 1 -0.120000 -2.223950 -6.418091 0.582727 # CT ALK
116 1 2 0.060000 -2.831950 -6.101091 1.486729 # HC ALK
117 1 2 0.060000 -1.150950 -6.348091 0.726728 # HC ALK
118 1 1 -0.180000 -2.526949 -7.893091 0.233728 # CT ALK
119 1 2 0.060000 -3.617951 -8.046091 0.037727 # HC ALK
120 1 2 0.060000 -2.004950 -8.286091 -0.664272 # HC ALK
121 1 2 0.060000 -2.284951 -8.545090 1.103727 # HC ALK
122 1 1 -0.180000 -2.573950 -5.548090 4.939128 # CT ALK
123 1 2 0.060000 -3.659951 -5.580090 4.720128 # HC ALK
124 1 2 0.060000 -2.014950 -5.813091 3.994128 # HC ALK
125 1 2 0.060000 -2.388951 -4.505091 5.165130 # HC ALK
126 1 1 -0.120000 -2.223950 -6.418091 6.164128 # CT ALK
127 1 2 0.060000 -2.831950 -6.101091 7.068130 # HC ALK
128 1 2 0.060000 -1.150950 -6.348091 6.308129 # HC ALK
129 1 1 -0.180000 -2.526949 -7.893091 5.815129 # CT ALK
130 1 2 0.060000 -3.617951 -8.046091 5.619128 # HC ALK
131 1 2 0.060000 -2.004950 -8.286091 4.917129 # HC ALK
132 1 2 0.060000 -2.284951 -8.545090 6.685128 # HC ALK
133 1 1 -0.180000 -2.573950 1.095909 -6.223674 # CT ALK
134 1 2 0.060000 -3.659951 1.063910 -6.442674 # HC ALK
135 1 2 0.060000 -2.014950 0.830908 -7.168674 # HC ALK
136 1 2 0.060000 -2.388951 2.138908 -5.997672 # HC ALK
137 1 1 -0.120000 -2.223950 0.225908 -4.998673 # CT ALK
138 1 2 0.060000 -2.831950 0.542908 -4.094672 # HC ALK
139 1 2 0.060000 -1.150950 0.295908 -4.854672 # HC ALK
140 1 1 -0.180000 -2.526949 -1.249092 -5.347672 # CT ALK
141 1 2 0.060000 -3.617951 -1.402092 -5.543674 # HC ALK
142 1 2 0.060000 -2.004950 -1.642092 -6.245673 # HC ALK
143 1 2 0.060000 -2.284951 -1.901091 -4.477674 # HC ALK
144 1 1 -0.180000 -2.573950 1.095909 -0.642273 # CT ALK
145 1 2 0.060000 -3.659951 1.063910 -0.861273 # HC ALK
146 1 2 0.060000 -2.014950 0.830908 -1.587273 # HC ALK
147 1 2 0.060000 -2.388951 2.138908 -0.416271 # HC ALK
148 1 1 -0.120000 -2.223950 0.225908 0.582727 # CT ALK
149 1 2 0.060000 -2.831950 0.542908 1.486729 # HC ALK
150 1 2 0.060000 -1.150950 0.295908 0.726728 # HC ALK
151 1 1 -0.180000 -2.526949 -1.249092 0.233728 # CT ALK
152 1 2 0.060000 -3.617951 -1.402092 0.037727 # HC ALK
153 1 2 0.060000 -2.004950 -1.642092 -0.664272 # HC ALK
154 1 2 0.060000 -2.284951 -1.901091 1.103727 # HC ALK
155 1 1 -0.180000 -2.573950 1.095909 4.939128 # CT ALK
156 1 2 0.060000 -3.659951 1.063910 4.720128 # HC ALK
157 1 2 0.060000 -2.014950 0.830908 3.994128 # HC ALK
158 1 2 0.060000 -2.388951 2.138908 5.165130 # HC ALK
159 1 1 -0.120000 -2.223950 0.225908 6.164128 # CT ALK
160 1 2 0.060000 -2.831950 0.542908 7.068130 # HC ALK
161 1 2 0.060000 -1.150950 0.295908 6.308129 # HC ALK
162 1 1 -0.180000 -2.526949 -1.249092 5.815129 # CT ALK
163 1 2 0.060000 -3.617951 -1.402092 5.619128 # HC ALK
164 1 2 0.060000 -2.004950 -1.642092 4.917129 # HC ALK
165 1 2 0.060000 -2.284951 -1.901091 6.685128 # HC ALK
166 1 1 -0.180000 -2.573950 7.739908 -6.223674 # CT ALK
167 1 2 0.060000 -3.659951 7.707909 -6.442674 # HC ALK
168 1 2 0.060000 -2.014950 7.474907 -7.168674 # HC ALK
169 1 2 0.060000 -2.388951 8.782907 -5.997672 # HC ALK
170 1 1 -0.120000 -2.223950 6.869907 -4.998673 # CT ALK
171 1 2 0.060000 -2.831950 7.186907 -4.094672 # HC ALK
172 1 2 0.060000 -1.150950 6.939907 -4.854672 # HC ALK
173 1 1 -0.180000 -2.526949 5.394907 -5.347672 # CT ALK
174 1 2 0.060000 -3.617951 5.241907 -5.543674 # HC ALK
175 1 2 0.060000 -2.004950 5.001907 -6.245673 # HC ALK
176 1 2 0.060000 -2.284951 4.742908 -4.477674 # HC ALK
177 1 1 -0.180000 -2.573950 7.739908 -0.642273 # CT ALK
178 1 2 0.060000 -3.659951 7.707909 -0.861273 # HC ALK
179 1 2 0.060000 -2.014950 7.474907 -1.587273 # HC ALK
180 1 2 0.060000 -2.388951 8.782907 -0.416271 # HC ALK
181 1 1 -0.120000 -2.223950 6.869907 0.582727 # CT ALK
182 1 2 0.060000 -2.831950 7.186907 1.486729 # HC ALK
183 1 2 0.060000 -1.150950 6.939907 0.726728 # HC ALK
184 1 1 -0.180000 -2.526949 5.394907 0.233728 # CT ALK
185 1 2 0.060000 -3.617951 5.241907 0.037727 # HC ALK
186 1 2 0.060000 -2.004950 5.001907 -0.664272 # HC ALK
187 1 2 0.060000 -2.284951 4.742908 1.103727 # HC ALK
188 1 1 -0.180000 -2.573950 7.739908 4.939128 # CT ALK
189 1 2 0.060000 -3.659951 7.707909 4.720128 # HC ALK
190 1 2 0.060000 -2.014950 7.474907 3.994128 # HC ALK
191 1 2 0.060000 -2.388951 8.782907 5.165130 # HC ALK
192 1 1 -0.120000 -2.223950 6.869907 6.164128 # CT ALK
193 1 2 0.060000 -2.831950 7.186907 7.068130 # HC ALK
194 1 2 0.060000 -1.150950 6.939907 6.308129 # HC ALK
195 1 1 -0.180000 -2.526949 5.394907 5.815129 # CT ALK
196 1 2 0.060000 -3.617951 5.241907 5.619128 # HC ALK
197 1 2 0.060000 -2.004950 5.001907 4.917129 # HC ALK
198 1 2 0.060000 -2.284951 4.742908 6.685128 # HC ALK
199 1 1 -0.180000 2.385951 -5.548090 -6.223674 # CT ALK
200 1 2 0.060000 1.299950 -5.580090 -6.442674 # HC ALK
201 1 2 0.060000 2.944951 -5.813091 -7.168674 # HC ALK
202 1 2 0.060000 2.570950 -4.505091 -5.997672 # HC ALK
203 1 1 -0.120000 2.735951 -6.418091 -4.998673 # CT ALK
204 1 2 0.060000 2.127951 -6.101091 -4.094672 # HC ALK
205 1 2 0.060000 3.808951 -6.348091 -4.854672 # HC ALK
206 1 1 -0.180000 2.432951 -7.893091 -5.347672 # CT ALK
207 1 2 0.060000 1.341950 -8.046091 -5.543674 # HC ALK
208 1 2 0.060000 2.954951 -8.286091 -6.245673 # HC ALK
209 1 2 0.060000 2.674950 -8.545090 -4.477674 # HC ALK
210 1 1 -0.180000 2.385951 -5.548090 -0.642273 # CT ALK
211 1 2 0.060000 1.299950 -5.580090 -0.861273 # HC ALK
212 1 2 0.060000 2.944951 -5.813091 -1.587273 # HC ALK
213 1 2 0.060000 2.570950 -4.505091 -0.416271 # HC ALK
214 1 1 -0.120000 2.735951 -6.418091 0.582727 # CT ALK
215 1 2 0.060000 2.127951 -6.101091 1.486729 # HC ALK
216 1 2 0.060000 3.808951 -6.348091 0.726728 # HC ALK
217 1 1 -0.180000 2.432951 -7.893091 0.233728 # CT ALK
218 1 2 0.060000 1.341950 -8.046091 0.037727 # HC ALK
219 1 2 0.060000 2.954951 -8.286091 -0.664272 # HC ALK
220 1 2 0.060000 2.674950 -8.545090 1.103727 # HC ALK
221 1 1 -0.180000 2.385951 -5.548090 4.939128 # CT ALK
222 1 2 0.060000 1.299950 -5.580090 4.720128 # HC ALK
223 1 2 0.060000 2.944951 -5.813091 3.994128 # HC ALK
224 1 2 0.060000 2.570950 -4.505091 5.165130 # HC ALK
225 1 1 -0.120000 2.735951 -6.418091 6.164128 # CT ALK
226 1 2 0.060000 2.127951 -6.101091 7.068130 # HC ALK
227 1 2 0.060000 3.808951 -6.348091 6.308129 # HC ALK
228 1 1 -0.180000 2.432951 -7.893091 5.815129 # CT ALK
229 1 2 0.060000 1.341950 -8.046091 5.619128 # HC ALK
230 1 2 0.060000 2.954951 -8.286091 4.917129 # HC ALK
231 1 2 0.060000 2.674950 -8.545090 6.685128 # HC ALK
232 1 1 -0.180000 2.385951 1.095909 -6.223674 # CT ALK
233 1 2 0.060000 1.299950 1.063910 -6.442674 # HC ALK
234 1 2 0.060000 2.944951 0.830908 -7.168674 # HC ALK
235 1 2 0.060000 2.570950 2.138908 -5.997672 # HC ALK
236 1 1 -0.120000 2.735951 0.225908 -4.998673 # CT ALK
237 1 2 0.060000 2.127951 0.542908 -4.094672 # HC ALK
238 1 2 0.060000 3.808951 0.295908 -4.854672 # HC ALK
239 1 1 -0.180000 2.432951 -1.249092 -5.347672 # CT ALK
240 1 2 0.060000 1.341950 -1.402092 -5.543674 # HC ALK
241 1 2 0.060000 2.954951 -1.642092 -6.245673 # HC ALK
242 1 2 0.060000 2.674950 -1.901091 -4.477674 # HC ALK
243 1 1 -0.180000 2.385951 1.095909 -0.642273 # CT ALK
244 1 2 0.060000 1.299950 1.063910 -0.861273 # HC ALK
245 1 2 0.060000 2.944951 0.830908 -1.587273 # HC ALK
246 1 2 0.060000 2.570950 2.138908 -0.416271 # HC ALK
247 1 1 -0.120000 2.735951 0.225908 0.582727 # CT ALK
248 1 2 0.060000 2.127951 0.542908 1.486729 # HC ALK
249 1 2 0.060000 3.808951 0.295908 0.726728 # HC ALK
250 1 1 -0.180000 2.432951 -1.249092 0.233728 # CT ALK
251 1 2 0.060000 1.341950 -1.402092 0.037727 # HC ALK
252 1 2 0.060000 2.954951 -1.642092 -0.664272 # HC ALK
253 1 2 0.060000 2.674950 -1.901091 1.103727 # HC ALK
254 1 1 -0.180000 2.385951 1.095909 4.939128 # CT ALK
255 1 2 0.060000 1.299950 1.063910 4.720128 # HC ALK
256 1 2 0.060000 2.944951 0.830908 3.994128 # HC ALK
257 1 2 0.060000 2.570950 2.138908 5.165130 # HC ALK
258 1 1 -0.120000 2.735951 0.225908 6.164128 # CT ALK
259 1 2 0.060000 2.127951 0.542908 7.068130 # HC ALK
260 1 2 0.060000 3.808951 0.295908 6.308129 # HC ALK
261 1 1 -0.180000 2.432951 -1.249092 5.815129 # CT ALK
262 1 2 0.060000 1.341950 -1.402092 5.619128 # HC ALK
263 1 2 0.060000 2.954951 -1.642092 4.917129 # HC ALK
264 1 2 0.060000 2.674950 -1.901091 6.685128 # HC ALK
265 1 1 -0.180000 2.385951 7.739908 -6.223674 # CT ALK
266 1 2 0.060000 1.299950 7.707909 -6.442674 # HC ALK
267 1 2 0.060000 2.944951 7.474907 -7.168674 # HC ALK
268 1 2 0.060000 2.570950 8.782907 -5.997672 # HC ALK
269 1 1 -0.120000 2.735951 6.869907 -4.998673 # CT ALK
270 1 2 0.060000 2.127951 7.186907 -4.094672 # HC ALK
271 1 2 0.060000 3.808951 6.939907 -4.854672 # HC ALK
272 1 1 -0.180000 2.432951 5.394907 -5.347672 # CT ALK
273 1 2 0.060000 1.341950 5.241907 -5.543674 # HC ALK
274 1 2 0.060000 2.954951 5.001907 -6.245673 # HC ALK
275 1 2 0.060000 2.674950 4.742908 -4.477674 # HC ALK
276 1 1 -0.180000 2.385951 7.739908 -0.642273 # CT ALK
277 1 2 0.060000 1.299950 7.707909 -0.861273 # HC ALK
278 1 2 0.060000 2.944951 7.474907 -1.587273 # HC ALK
279 1 2 0.060000 2.570950 8.782907 -0.416271 # HC ALK
280 1 1 -0.120000 2.735951 6.869907 0.582727 # CT ALK
281 1 2 0.060000 2.127951 7.186907 1.486729 # HC ALK
282 1 2 0.060000 3.808951 6.939907 0.726728 # HC ALK
283 1 1 -0.180000 2.432951 5.394907 0.233728 # CT ALK
284 1 2 0.060000 1.341950 5.241907 0.037727 # HC ALK
285 1 2 0.060000 2.954951 5.001907 -0.664272 # HC ALK
286 1 2 0.060000 2.674950 4.742908 1.103727 # HC ALK
287 1 1 -0.180000 2.385951 7.739908 4.939128 # CT ALK
288 1 2 0.060000 1.299950 7.707909 4.720128 # HC ALK
289 1 2 0.060000 2.944951 7.474907 3.994128 # HC ALK
290 1 2 0.060000 2.570950 8.782907 5.165130 # HC ALK
291 1 1 -0.120000 2.735951 6.869907 6.164128 # CT ALK
292 1 2 0.060000 2.127951 7.186907 7.068130 # HC ALK
293 1 2 0.060000 3.808951 6.939907 6.308129 # HC ALK
294 1 1 -0.180000 2.432951 5.394907 5.815129 # CT ALK
295 1 2 0.060000 1.341950 5.241907 5.619128 # HC ALK
296 1 2 0.060000 2.954951 5.001907 4.917129 # HC ALK
297 1 2 0.060000 2.674950 4.742908 6.685128 # HC ALK
298 1 1 -0.180000 7.345851 -5.548090 -6.223674 # CT ALK
299 1 2 0.060000 6.259851 -5.580090 -6.442674 # HC ALK
300 1 2 0.060000 7.904851 -5.813091 -7.168674 # HC ALK
301 1 2 0.060000 7.530851 -4.505091 -5.997672 # HC ALK
302 1 1 -0.120000 7.695852 -6.418091 -4.998673 # CT ALK
303 1 2 0.060000 7.087852 -6.101091 -4.094672 # HC ALK
304 1 2 0.060000 8.768852 -6.348091 -4.854672 # HC ALK
305 1 1 -0.180000 7.392852 -7.893091 -5.347672 # CT ALK
306 1 2 0.060000 6.301851 -8.046091 -5.543674 # HC ALK
307 1 2 0.060000 7.914852 -8.286091 -6.245673 # HC ALK
308 1 2 0.060000 7.634851 -8.545090 -4.477674 # HC ALK
309 1 1 -0.180000 7.345851 -5.548090 -0.642273 # CT ALK
310 1 2 0.060000 6.259851 -5.580090 -0.861273 # HC ALK
311 1 2 0.060000 7.904851 -5.813091 -1.587273 # HC ALK
312 1 2 0.060000 7.530851 -4.505091 -0.416271 # HC ALK
313 1 1 -0.120000 7.695852 -6.418091 0.582727 # CT ALK
314 1 2 0.060000 7.087852 -6.101091 1.486729 # HC ALK
315 1 2 0.060000 8.768852 -6.348091 0.726728 # HC ALK
316 1 1 -0.180000 7.392852 -7.893091 0.233728 # CT ALK
317 1 2 0.060000 6.301851 -8.046091 0.037727 # HC ALK
318 1 2 0.060000 7.914852 -8.286091 -0.664272 # HC ALK
319 1 2 0.060000 7.634851 -8.545090 1.103727 # HC ALK
320 1 1 -0.180000 7.345851 -5.548090 4.939128 # CT ALK
321 1 2 0.060000 6.259851 -5.580090 4.720128 # HC ALK
322 1 2 0.060000 7.904851 -5.813091 3.994128 # HC ALK
323 1 2 0.060000 7.530851 -4.505091 5.165130 # HC ALK
324 1 1 -0.120000 7.695852 -6.418091 6.164128 # CT ALK
325 1 2 0.060000 7.087852 -6.101091 7.068130 # HC ALK
326 1 2 0.060000 8.768852 -6.348091 6.308129 # HC ALK
327 1 1 -0.180000 7.392852 -7.893091 5.815129 # CT ALK
328 1 2 0.060000 6.301851 -8.046091 5.619128 # HC ALK
329 1 2 0.060000 7.914852 -8.286091 4.917129 # HC ALK
330 1 2 0.060000 7.634851 -8.545090 6.685128 # HC ALK
331 1 1 -0.180000 7.345851 1.095909 -6.223674 # CT ALK
332 1 2 0.060000 6.259851 1.063910 -6.442674 # HC ALK
333 1 2 0.060000 7.904851 0.830908 -7.168674 # HC ALK
334 1 2 0.060000 7.530851 2.138908 -5.997672 # HC ALK
335 1 1 -0.120000 7.695852 0.225908 -4.998673 # CT ALK
336 1 2 0.060000 7.087852 0.542908 -4.094672 # HC ALK
337 1 2 0.060000 8.768852 0.295908 -4.854672 # HC ALK
338 1 1 -0.180000 7.392852 -1.249092 -5.347672 # CT ALK
339 1 2 0.060000 6.301851 -1.402092 -5.543674 # HC ALK
340 1 2 0.060000 7.914852 -1.642092 -6.245673 # HC ALK
341 1 2 0.060000 7.634851 -1.901091 -4.477674 # HC ALK
342 1 1 -0.180000 7.345851 1.095909 -0.642273 # CT ALK
343 1 2 0.060000 6.259851 1.063910 -0.861273 # HC ALK
344 1 2 0.060000 7.904851 0.830908 -1.587273 # HC ALK
345 1 2 0.060000 7.530851 2.138908 -0.416271 # HC ALK
346 1 1 -0.120000 7.695852 0.225908 0.582727 # CT ALK
347 1 2 0.060000 7.087852 0.542908 1.486729 # HC ALK
348 1 2 0.060000 8.768852 0.295908 0.726728 # HC ALK
349 1 1 -0.180000 7.392852 -1.249092 0.233728 # CT ALK
350 1 2 0.060000 6.301851 -1.402092 0.037727 # HC ALK
351 1 2 0.060000 7.914852 -1.642092 -0.664272 # HC ALK
352 1 2 0.060000 7.634851 -1.901091 1.103727 # HC ALK
353 1 1 -0.180000 7.345851 1.095909 4.939128 # CT ALK
354 1 2 0.060000 6.259851 1.063910 4.720128 # HC ALK
355 1 2 0.060000 7.904851 0.830908 3.994128 # HC ALK
356 1 2 0.060000 7.530851 2.138908 5.165130 # HC ALK
357 1 1 -0.120000 7.695852 0.225908 6.164128 # CT ALK
358 1 2 0.060000 7.087852 0.542908 7.068130 # HC ALK
359 1 2 0.060000 8.768852 0.295908 6.308129 # HC ALK
360 1 1 -0.180000 7.392852 -1.249092 5.815129 # CT ALK
361 1 2 0.060000 6.301851 -1.402092 5.619128 # HC ALK
362 1 2 0.060000 7.914852 -1.642092 4.917129 # HC ALK
363 1 2 0.060000 7.634851 -1.901091 6.685128 # HC ALK
364 1 1 -0.180000 7.345851 7.739908 -6.223674 # CT ALK
365 1 2 0.060000 6.259851 7.707909 -6.442674 # HC ALK
366 1 2 0.060000 7.904851 7.474907 -7.168674 # HC ALK
367 1 2 0.060000 7.530851 8.782907 -5.997672 # HC ALK
368 1 1 -0.120000 7.695852 6.869907 -4.998673 # CT ALK
369 1 2 0.060000 7.087852 7.186907 -4.094672 # HC ALK
370 1 2 0.060000 8.768852 6.939907 -4.854672 # HC ALK
371 1 1 -0.180000 7.392852 5.394907 -5.347672 # CT ALK
372 1 2 0.060000 6.301851 5.241907 -5.543674 # HC ALK
373 1 2 0.060000 7.914852 5.001907 -6.245673 # HC ALK
374 1 2 0.060000 7.634851 4.742908 -4.477674 # HC ALK
375 1 1 -0.180000 7.345851 7.739908 -0.642273 # CT ALK
376 1 2 0.060000 6.259851 7.707909 -0.861273 # HC ALK
377 1 2 0.060000 7.904851 7.474907 -1.587273 # HC ALK
378 1 2 0.060000 7.530851 8.782907 -0.416271 # HC ALK
379 1 1 -0.120000 7.695852 6.869907 0.582727 # CT ALK
380 1 2 0.060000 7.087852 7.186907 1.486729 # HC ALK
381 1 2 0.060000 8.768852 6.939907 0.726728 # HC ALK
382 1 1 -0.180000 7.392852 5.394907 0.233728 # CT ALK
383 1 2 0.060000 6.301851 5.241907 0.037727 # HC ALK
384 1 2 0.060000 7.914852 5.001907 -0.664272 # HC ALK
385 1 2 0.060000 7.634851 4.742908 1.103727 # HC ALK
386 1 1 -0.180000 7.345851 7.739908 4.939128 # CT ALK
387 1 2 0.060000 6.259851 7.707909 4.720128 # HC ALK
388 1 2 0.060000 7.904851 7.474907 3.994128 # HC ALK
389 1 2 0.060000 7.530851 8.782907 5.165130 # HC ALK
390 1 1 -0.120000 7.695852 6.869907 6.164128 # CT ALK
391 1 2 0.060000 7.087852 7.186907 7.068130 # HC ALK
392 1 2 0.060000 8.768852 6.939907 6.308129 # HC ALK
393 1 1 -0.180000 7.392852 5.394907 5.815129 # CT ALK
394 1 2 0.060000 6.301851 5.241907 5.619128 # HC ALK
395 1 2 0.060000 7.914852 5.001907 4.917129 # HC ALK
396 1 2 0.060000 7.634851 4.742908 6.685128 # HC ALK

 Bonds

1 2 1 2
2 2 1 3
3 2 1 4
4 1 1 5
5 1 5 8
6 2 5 6
7 2 5 7
8 2 8 11
9 2 8 9
10 2 8 10
11 2 12 13
12 2 12 14
13 2 12 15
14 1 12 16
15 1 16 19
16 2 16 17
17 2 16 18
18 2 19 22
19 2 19 20
20 2 19 21
21 2 23 24
22 2 23 25
23 2 23 26
24 1 23 27
25 1 27 30
26 2 27 28
27 2 27 29
28 2 30 33
29 2 30 31
30 2 30 32
31 2 34 35
32 2 34 36
33 2 34 37
34 1 34 38
35 1 38 41
36 2 38 39
37 2 38 40
38 2 41 44
39 2 41 42
40 2 41 43
41 2 45 46
42 2 45 47
43 2 45 48
44 1 45 49
45 1 49 52
46 2 49 50
47 2 49 51
48 2 52 55
49 2 52 53
50 2 52 54
51 2 56 57
52 2 56 58
53 2 56 59
54 1 56 60
55 1 60 63
56 2 60 61
57 2 60 62
58 2 63 66
59 2 63 64
60 2 63 65
61 2 67 68
62 2 67 69
63 2 67 70
64 1 67 71
65 1 71 74
66 2 71 72
67 2 71 73
68 2 74 77
69 2 74 75
70 2 74 76
71 2 78 79
72 2 78 80
73 2 78 81
74 1 78 82
75 1 82 85
76 2 82 83
77 2 82 84
78 2 85 88
79 2 85 86
80 2 85 87
81 2 89 90
82 2 89 91
83 2 89 92
84 1 89 93
85 1 93 96
86 2 93 94
87 2 93 95
88 2 96 99
89 2 96 97
90 2 96 98
91 2 100 101
92 2 100 102
93 2 100 103
94 1 100 104
95 1 104 107
96 2 104 105
97 2 104 106
98 2 107 110
99 2 107 108
100 2 107 109
101 2 111 112
102 2 111 113
103 2 111 114
104 1 111 115
105 1 115 118
106 2 115 116
107 2 115 117
108 2 118 121
109 2 118 119
110 2 118 120
111 2 122 123
112 2 122 124
113 2 122 125
114 1 122 126
115 1 126 129
116 2 126 127
117 2 126 128
118 2 129 132
119 2 129 130
120 2 129 131
121 2 133 134
122 2 133 135
123 2 133 136
124 1 133 137
125 1 137 140
126 2 137 138
127 2 137 139
128 2 140 143
129 2 140 141
130 2 140 142
131 2 144 145
132 2 144 146
133 2 144 147
134 1 144 148
135 1 148 151
136 2 148 149
137 2 148 150
138 2 151 154
139 2 151 152
140 2 151 153
141 2 155 156
142 2 155 157
143 2 155 158
144 1 155 159
145 1 159 162
146 2 159 160
147 2 159 161
148 2 162 165
149 2 162 163
150 2 162 164
151 2 166 167
152 2 166 168
153 2 166 169
154 1 166 170
155 1 170 173
156 2 170 171
157 2 170 172
158 2 173 176
159 2 173 174
160 2 173 175
161 2 177 178
162 2 177 179
163 2 177 180
164 1 177 181
165 1 181 184
166 2 181 182
167 2 181 183
168 2 184 187
169 2 184 185
170 2 184 186
171 2 188 189
172 2 188 190
173 2 188 191
174 1 188 192
175 1 192 195
176 2 192 193
177 2 192 194
178 2 195 198
179 2 195 196
180 2 195 197
181 2 199 200
182 2 199 201
183 2 199 202
184 1 199 203
185 1 203 206
186 2 203 204
187 2 203 205
188 2 206 209
189 2 206 207
190 2 206 208
191 2 210 211
192 2 210 212
193 2 210 213
194 1 210 214
195 1 214 217
196 2 214 215
197 2 214 216
198 2 217 220
199 2 217 218
200 2 217 219
201 2 221 222
202 2 221 223
203 2 221 224
204 1 221 225
205 1 225 228
206 2 225 226
207 2 225 227
208 2 228 231
209 2 228 229
210 2 228 230
211 2 232 233
212 2 232 234
213 2 232 235
214 1 232 236
215 1 236 239
216 2 236 237
217 2 236 238
218 2 239 242
219 2 239 240
220 2 239 241
221 2 243 244
222 2 243 245
223 2 243 246
224 1 243 247
225 1 247 250
226 2 247 248
227 2 247 249
228 2 250 253
229 2 250 251
230 2 250 252
231 2 254 255
232 2 254 256
233 2 254 257
234 1 254 258
235 1 258 261
236 2 258 259
237 2 258 260
238 2 261 264
239 2 261 262
240 2 261 263
241 2 265 266
242 2 265 267
243 2 265 268
244 1 265 269
245 1 269 272
246 2 269 270
247 2 269 271
248 2 272 275
249 2 272 273
250 2 272 274
251 2 276 277
252 2 276 278
253 2 276 279
254 1 276 280
255 1 280 283
256 2 280 281
257 2 280 282
258 2 283 286
259 2 283 284
260 2 283 285
261 2 287 288
262 2 287 289
263 2 287 290
264 1 287 291
265 1 291 294
266 2 291 292
267 2 291 293
268 2 294 297
269 2 294 295
270 2 294 296
271 2 298 299
272 2 298 300
273 2 298 301
274 1 298 302
275 1 302 305
276 2 302 303
277 2 302 304
278 2 305 308
279 2 305 306
280 2 305 307
281 2 309 310
282 2 309 311
283 2 309 312
284 1 309 313
285 1 313 316
286 2 313 314
287 2 313 315
288 2 316 319
289 2 316 317
290 2 316 318
291 2 320 321
292 2 320 322
293 2 320 323
294 1 320 324
295 1 324 327
296 2 324 325
297 2 324 326
298 2 327 330
299 2 327 328
300 2 327 329
301 2 331 332
302 2 331 333
303 2 331 334
304 1 331 335
305 1 335 338
306 2 335 336
307 2 335 337
308 2 338 341
309 2 338 339
310 2 338 340
311 2 342 343
312 2 342 344
313 2 342 345
314 1 342 346
315 1 346 349
316 2 346 347
317 2 346 348
318 2 349 352
319 2 349 350
320 2 349 351
321 2 353 354
322 2 353 355
323 2 353 356
324 1 353 357
325 1 357 360
326 2 357 358
327 2 357 359
328 2 360 363
329 2 360 361
330 2 360 362
331 2 364 365
332 2 364 366
333 2 364 367
334 1 364 368
335 1 368 371
336 2 368 369
337 2 368 370
338 2 371 374
339 2 371 372
340 2 371 373
341 2 375 376
342 2 375 377
343 2 375 378
344 1 375 379
345 1 379 382
346 2 379 380
347 2 379 381
348 2 382 385
349 2 382 383
350 2 382 384
351 2 386 387
352 2 386 388
353 2 386 389
354 1 386 390
355 1 390 393
356 2 390 391
357 2 390 392
358 2 393 396
359 2 393 394
360 2 393 395

 Angles

1 3 2 1 3
2 3 2 1 4
3 2 2 1 5
4 3 3 1 4
5 2 3 1 5
6 2 4 1 5
7 1 1 5 8
8 2 1 5 6
9 2 1 5 7
10 2 6 5 8
11 2 7 5 8
12 3 6 5 7
13 2 5 8 11
14 2 5 8 9
15 2 5 8 10
16 3 9 8 11
17 3 10 8 11
18 3 9 8 10
19 3 13 12 14
20 3 13 12 15
21 2 13 12 16
22 3 14 12 15
23 2 14 12 16
24 2 15 12 16
25 1 12 16 19
26 2 12 16 17
27 2 12 16 18
28 2 17 16 19
29 2 18 16 19
30 3 17 16 18
31 2 16 19 22
32 2 16 19 20
33 2 16 19 21
34 3 20 19 22
35 3 21 19 22
36 3 20 19 21
37 3 24 23 25
38 3 24 23 26
39 2 24 23 27
40 3 25 23 26
41 2 25 23 27
42 2 26 23 27
43 1 23 27 30
44 2 23 27 28
45 2 23 27 29
46 2 28 27 30
47 2 29 27 30
48 3 28 27 29
49 2 27 30 33
50 2 27 30 31
51 2 27 30 32
52 3 31 30 33
53 3 32 30 33
54 3 31 30 32
55 3 35 34 36
56 3 35 34 37
57 2 35 34 38
58 3 36 34 37
59 2 36 34 38
60 2 37 34 38
61 1 34 38 41
62 2 34 38 39
63 2 34 38 40
64 2 39 38 41
65 2 40 38 41
66 3 39 38 40
67 2 38 41 44
68 2 38 41 42
69 2 38 41 43
70 3 42 41 44
71 3 43 41 44
72 3 42 41 43
73 3 46 45 47
74 3 46 45 48
75 2 46 45 49
76 3 47 45 48
77 2 47 45 49
78 2 48 45 49
79 1 45 49 52
80 2 45 49 50
81 2 45 49 51
82 2 50 49 52
83 2 51 49 52
84 3 50 49 51
85 2 49 52 55
86 2 49 52 53
87 2 49 52 54
88 3 53 52 55
89 3 54 52 55
90 3 53 52 54
91 3 57 56 58
92 3 57 56 59
93 2 57 56 60
94 3 58 56 59
95 2 58 56 60
96 2 59 56 60
97 1 56 60 63
98 2 56 60 61
99 2 56 60 62
100 2 61 60 63
101 2 62 60 63
102 3 61 60 62
103 2 60 63 66
104 2 60 63 64
105 2 60 63 65
106 3 64 63 66
107 3 65 63 66
108 3 64 63 65
109 3 68 67 69
110 3 68 67 70
111 2 68 67 71
112 3 69 67 70
113 2 69 67 71
114 2 70 67 71
115 1 67 71 74
116 2 67 71 72
117 2 67 71 73
118 2 72 71 74
119 2 73 71 74
120 3 72 71 73
121 2 71 74 77
122 2 71 74 75
123 2 71 74 76
124 3 75 74 77
125 3 76 74 77
126 3 75 74 76
127 3 79 78 80
128 3 79 78 81
129 2 79 78 82
130 3 80 78 81
131 2 80 78 82
132 2 81 78 82
133 1 78 82 85
134 2 78 82 83
135 2 78 82 84
136 2 83 82 85
137 2 84 82 85
138 3 83 82 84
139 2 82 85 88
140 2 82 85 86
141 2 82 85 87
142 3 86 85 88
143 3 87 85 88
144 3 86 85 87
145 3 90 89 91
146 3 90 89 92
147 2 90 89 93
148 3 91 89 92
149 2 91 89 93
150 2 92 89 93
151 1 89 93 96
152 2 89 93 94
153 2 89 93 95
154 2 94 93 96
155 2 95 93 96
156 3 94 93 95
157 2 93 96 99
158 2 93 96 97
159 2 93 96 98
160 3 97 96 99
161 3 98 96 99
162 3 97 96 98
163 3 101 100 102
164 3 101 100 103
165 2 101 100 104
166 3 102 100 103
167 2 102 100 104
168 2 103 100 104
169 1 100 104 107
170 2 100 104 105
171 2 100 104 106
172 2 105 104 107
173 2 106 104 107
174 3 105 104 106
175 2 104 107 110
176 2 104 107 108
177 2 104 107 109
178 3 108 107 110
179 3 109 107 110
180 3 108 107 109
181 3 112 111 113
182 3 112 111 114
183 2 112 111 115
184 3 113 111 114
185 2 113 111 115
186 2 114 111 115
187 1 111 115 118
188 2 111 115 116
189 2 111 115 117
190 2 116 115 118
191 2 117 115 118
192 3 116 115 117
193 2 115 118 121
194 2 115 118 119
195 2 115 118 120
196 3 119 118 121
197 3 120 118 121
198 3 119 118 120
199 3 123 122 124
200 3 123 122 125
201 2 123 122 126
202 3 124 122 125
203 2 124 122 126
204 2 125 122 126
205 1 122 126 129
206 2 122 126 127
207 2 122 126 128
208 2 127 126 129