  LAMMPS description
 
     400   atoms
       0   bonds
       0   angles
       0   dihedrals
 
      11   atom types
      13   bond types
      24   angle types
      25   dihedral types
 
       0   13.757000     xlo xhi
       0   16.634000     ylo yhi
       0   18.401740     zlo zhi
  0.0000000     -5.0306945      0.0000000     xy xz yz

  Masses

       1   12.010000
       2   12.010000
       3   12.010000
       4   12.010000
       5   16.000000
       6   16.000000
       7   12.010000
       8   12.010000
       9   12.010000
      10   1.0100000
      11   1.0100000

   Atoms

       1       0       1    0.000000    0.993000    3.067000    7.215000
       2       0       1    0.000000    0.697069    2.203229    6.075364
       3       0       1    0.000000   -0.343841    1.128699    6.198214
       4       0       1    0.000000   -1.060760    0.947202    7.457228
       5       0       1    0.000000   -0.756975    1.835250    8.628573
       6       0       1    0.000000    0.255477    2.880638    8.509195
       7       0       1    0.000000    0.006597    4.237428    9.100906
       8       0       1    0.000000    0.589723    5.262507    8.172567
       9       0       1    0.000000    1.199188    4.539334    7.006930
      10       0       1    0.000000    1.104611    5.107416    5.665076
      11       0       1    0.000000    0.800844    4.219359    4.493725
      12       0       1    0.000000    0.599799    2.787348    4.696019
      13       0       1    0.000000   -0.500830    2.073627    3.966453
      14       0       1    0.000000   -1.084030    1.048524    4.894855
      15       0       1    0.000000   11.236083    0.788953    4.885962
      16       0       1    0.000000   10.499144    0.602339    6.180199
      17       0       1    0.000000   11.219149    0.680389    7.448098
      18       0       1    0.000000   10.609969    1.403546    8.613800
      19       0       1    0.000000   -2.046460    2.117333    9.343373
      20       0       1    0.000000   -2.288413    3.437132    9.919145
      21       0       1    0.000000   -1.247819    4.511800    9.796296
      22       0       1    0.000000   -1.953958    5.818982    9.582646
      23       0       1    0.000000   -1.386658    6.816187    8.679526
      24       0       1    0.000000   -0.097222    6.534108    7.964691
      25       0       1    0.000000   -0.194262    7.118115    6.585400
      26       0       1    0.000000    0.398370    6.414579    5.451424
      27       0       1    0.000000   -0.341775    6.334425    4.148052
      28       0       1    0.000000   -0.093036    4.977676    3.556155
      29       0       1    0.000000   12.593339    4.283352    2.846411
      30       0       1    0.000000   12.386628    2.811293    3.054392
      31       0       1    0.000000   10.909550    2.544474    3.045236
      32       0       1    0.000000   10.342205    1.547244    3.948401
      33       0       1    0.000000    9.052814    1.829288    4.663202
      34       0       1    0.000000    9.149805    1.245306    6.042545
      35       0       1    0.000000    8.557204    1.948804    7.176542
      36       0       1    0.000000    9.297340    2.029026    8.479920
      37       0       1    0.000000    9.048598    3.385761    9.071829
      38       0       1    0.000000   10.119231    4.080109    9.781541
      39       0       1    0.000000   10.325931    5.552182    9.573582
      40       0       1    0.000000    9.456395    6.289884    8.661537
      41       0       1    0.000000   10.039595    7.314986    7.733121
      42       0       1    0.000000   11.476498    7.574541    7.741970
      43       0       1    0.000000   -1.543561    7.761114    6.447723
      44       0       1    0.000000   11.493442    7.683121    5.179817
      45       0       1    0.000000   12.102637    6.959924    4.014103
      46       0       1    0.000000   11.002045    6.246182    3.284521
      47       0       1    0.000000   11.244022    4.926345    2.708713
      48       0       1    0.000000   10.203363    3.851651    2.831602
      49       0       1    0.000000    8.949064    4.126031    3.526957
      50       0       1    0.000000    8.365849    3.100901    4.455402
      51       0       1    0.000000    7.756671    3.824091    5.621127
      52       0       1    0.000000    7.851018    3.255989    6.962931
      53       0       1    0.000000    8.154719    4.144079    8.134291
      54       0       1    0.000000    8.355804    5.576107    7.931977
      55       0       1    0.000000    8.258814    6.160105    6.552637
      56       0       1    0.000000    7.963380    5.296181    5.413148
      57       0       1    0.000000    8.700317    5.482792    4.118880
      58       0       1    0.000000    9.712654    6.528247    3.999320
      59       0       1    0.000000   10.016354    7.416330    5.170691
      60       0       1    0.000000    9.299467    7.234810    6.429731
      61       0       1    0.000000    3.472853   11.375357    2.040588
      62       0       1    0.000000    3.787629   10.511611    3.175021
      63       0       1    0.000000    4.837458    9.447424    3.039459
      64       0       1    0.000000    5.543955    9.275931    1.773154
      65       0       1    0.000000    5.220373   10.163833    0.606991
      66       0       1    0.000000    4.199118   11.199067    0.738853
      67       0       1    0.000000    4.428920   12.559603    0.147981
      68       0       1    0.000000    3.844712   13.576753    1.084521
      69       0       1    0.000000    3.253819   12.844843    2.254224
      70       0       1    0.000000    3.355508   13.410603    3.596476
      71       0       1    0.000000    3.679082   12.522700    4.762644
      72       0       1    0.000000    3.892164   11.093198    4.554822
      73       0       1    0.000000    5.006597   10.388450    5.272026
      74       0       1    0.000000    5.590825    9.371301    4.335477
      75       0       1    0.000000    7.030176    9.125766    4.329928
      76       0       1    0.000000    7.756433    8.949473    3.028201
      77       0       1    0.000000    7.023571    9.023524    1.767449
      78       0       1    0.000000    7.614455    9.755431    0.597753
      79       0       1    0.000000    1.469331   10.460181   18.282286
      80       0       1    0.000000    1.692880   11.783698   17.707492
      81       0       1    0.000000    0.643060   12.847889   17.843043
      82       0       1    0.000000    1.338468   14.161386   18.053159
      83       0       1    0.000000    5.800842   15.150850    0.562470
      84       0       1    0.000000    4.521197   14.854504    1.288914
      85       0       1    0.000000    4.625736   15.436092    2.668717
      86       0       1    0.000000    4.050927   14.724096    3.806580
      87       0       1    0.000000    4.804295   14.647981    5.102599
      88       0       1    0.000000    4.574481   13.287441    5.693479
      89       0       1    0.000000    5.658593   12.601865    6.391165
      90       0       1    0.000000    5.877630   11.132377    6.177532
      91       0       1    0.000000    7.357249   10.879972    6.171831
      92       0       1    0.000000    7.925580    9.890504    5.260762
      93       0       1    0.000000    9.205216   10.186850    4.534329
      94       0       1    0.000000    9.100688    9.605267    3.154525
      95       0       1    0.000000    9.675489   10.317253    2.016663
      96       0       1    0.000000    8.922127   10.393380    0.720639
      97       0       1    0.000000    9.151938   11.753914    0.129765
      98       0       1    0.000000    3.037134   12.439489   17.833818
      99       0       1    0.000000    2.818097   13.908977   18.047442
     100       0       1    0.000000    8.719820   14.652906    0.551213
     101       0       1    0.000000    8.135601   15.670051    1.487756
     102       0       1    0.000000    6.696237   15.915591    1.493313
     103       0       1    0.000000    5.969979   16.091879    2.795038
     104       0       1    0.000000    6.702847   16.017827    4.055791
     105       0       1    0.000000    6.111963   15.285921    5.225491
     106       0       1    0.000000    7.226401   14.581175    5.942687
     107       0       1    0.000000    7.002836   13.257654    6.517496
     108       0       1    0.000000    8.052678   12.193464    6.381931
     109       0       1    0.000000    9.297487   12.481748    5.675272
     110       0       1    0.000000    9.881724   11.464601    4.738714
     111       0       1    0.000000   10.472601   12.196510    3.569021
     112       0       1    0.000000   10.370912   11.630750    2.226764
     113       0       1    0.000000   10.047337   12.518654    1.060597
     114       0       1    0.000000    9.834257   13.948160    1.268417
     115       0       1    0.000000    9.938793   14.529741    2.648219
     116       0       1    0.000000   10.253557   13.666000    3.782654
     117       0       1    0.000000    9.527310   13.842288    5.084379
     118       0       1    0.000000    8.506037   14.877517    5.216253
     119       0       1    0.000000    8.182469   15.765420    4.050084
     120       0       1    0.000000    8.888957   15.593934    2.783776
     121       0       1    0.000000    7.830183   13.576996   11.253087
     122       0       1    0.000000    8.144472   14.439908   12.388282
     123       0       1    0.000000    9.191519   15.506855   12.252703
     124       0       1    0.000000    9.895753   15.681830   10.985626
     125       0       1    0.000000    9.572675   14.794780    9.818670
     126       0       1    0.000000    8.554107   13.756875    9.950573
     127       0       1    0.000000    8.786413   12.397727    9.357434
     128       0       1    0.000000    8.205991   11.377848   10.293409
     129       0       1    0.000000    7.615033   12.106675   11.464969
     130       0       1    0.000000    7.720036   11.539285   12.806286
     131       0       1    0.000000    8.043131   12.426342   13.973227
     132       0       1    0.000000    8.252422   13.856649   13.767110
     133       0       1    0.000000    9.366175   14.563116   14.483695
     134       0       1    0.000000    9.946556   15.582984   13.547749
     135       0       1    0.000000   -2.371690   15.832056   13.540460
     136       0       1    0.000000   -1.647748   16.011925   12.237940
     137       0       1    0.000000   -2.382251   15.937859   10.978142
     138       0       1    0.000000   -1.791275   15.209025    9.806564
     139       0       1    0.000000   10.851969   14.502574    9.089990
     140       0       1    0.000000   11.077938   13.180406    8.512993
     141       0       1    0.000000   10.030879   12.113470    8.648593
     142       0       1    0.000000   10.729823   10.801382    8.855828
     143       0       1    0.000000   10.165208    9.809250    9.766331
     144       0       1    0.000000    8.885913   10.101460   10.495013
     145       0       1    0.000000    8.993842    9.518208   11.873853
     146       0       1    0.000000    8.418962   10.227189   13.013539
     147       0       1    0.000000    9.174001   10.303344   14.308585
     148       0       1    0.000000    8.941731   11.662484   14.901699
     149       0       1    0.000000   -3.731830   12.349723   15.598790
     150       0       1    0.000000   -3.516684   13.820037   15.386908
     151       0       1    0.000000   -2.037679   14.076068   15.379415
     152       0       1    0.000000   -1.473099   15.068190   14.468946
     153       0       1    0.000000   -0.193767   14.775977   13.740233
     154       0       1    0.000000   -0.301733   15.359248   12.361410
     155       0       1    0.000000    0.273173   14.650243   11.221716
     156       0       1    0.000000   -0.481882   14.574112    9.926682
     157       0       1    0.000000   -0.249605   13.214958    9.333556
     158       0       1    0.000000   -1.333048   12.527723    8.636472
     159       0       1    0.000000   -1.548200   11.057400    8.848358
     160       0       1    0.000000   -0.674041   10.314333    9.751555
     161       0       1    0.000000   -1.254441    9.294446   10.687518
     162       0       1    0.000000   -2.693178    9.045402   10.694790
     163       0       1    0.000000   10.339874    8.865511   11.997318
     164       0       1    0.000000   -2.682627    8.939589   13.257117
     165       0       1    0.000000   -3.273597    9.668409   14.428683
     166       0       1    0.000000   -2.159862   10.374880   15.145287
     167       0       1    0.000000   -2.385797   11.697037   15.722245
     168       0       1    0.000000   -1.338783   12.763972   15.586694
     169       0       1    0.000000   -0.094252   12.479719   14.877798
     170       0       1    0.000000    0.486105   13.499597   13.941865
     171       0       1    0.000000    1.077099   12.770766   12.770283
     172       0       1    0.000000    0.972084   13.338161   11.428974
     173       0       1    0.000000    0.648995   12.451103   10.262027
     174       0       1    0.000000    0.439703   11.020793   10.468146
     175       0       1    0.000000    0.547640   10.437525   11.846978
     176       0       1    0.000000    0.861948   11.300454   12.982167
     177       0       1    0.000000    0.137990   11.120570   14.284699
     178       0       1    0.000000   -0.880530   10.082664   14.416571
     179       0       1    0.000000   -1.203640    9.195606   13.249636
     180       0       1    0.000000   -0.499384    9.370600   11.982553
     181       0       1    0.000000    5.275800    5.267778   16.332611
     182       0       1    0.000000    4.958115    6.129485   15.197455
     183       0       1    0.000000    3.907824    7.193173   15.333469
     184       0       1    0.000000    3.203807    7.366183   16.600933
     185       0       1    0.000000    3.530369    6.480366   17.767856
     186       0       1    0.000000    4.552093    5.445629   17.635536
     187       0       1    0.000000    4.324417    4.085876   18.229068
     188       0       1    0.000000    4.907453    3.067636   17.292932
     189       0       1    0.000000    5.495424    3.798091   16.120874
     190       0       1    0.000000    5.391394    3.230127   14.779734
     191       0       1    0.000000    5.064813    4.115947   13.612820
     192       0       1    0.000000    4.851171    5.545637   13.818794
     193       0       1    0.000000    3.734773    6.248475   13.102750
     194       0       1    0.000000    3.151764    7.266699   14.038860
     195       0       1    0.000000    1.712255    7.511274   14.046976
     196       0       1    0.000000    0.988533    7.689122   15.349894
     197       0       1    0.000000    1.724028    7.617585   16.609269
     198       0       1    0.000000    1.136032    6.887131   17.781331
     199       0       1    0.000000    7.283134    6.184300    0.095627
     200       0       1    0.000000    7.061658    4.861541    0.673004
     201       0       1    0.000000    8.111959    3.797862    0.536985
     202       0       1    0.000000    7.417008    2.483545    0.330408
     203       0       1    0.000000    2.953480    1.493020   17.821493
     204       0       1    0.000000    4.231415    1.789096   17.091978
     205       0       1    0.000000    4.124474    1.205245   15.713311
     206       0       1    0.000000    4.696454    1.915811   14.573144
     207       0       1    0.000000    3.940397    1.989360   13.278538
     208       0       1    0.000000    4.168047    3.349109   12.685031
     209       0       1    0.000000    3.082038    4.032824   11.988472
     210       0       1    0.000000    2.862427    5.502498   12.200206
     211       0       1    0.000000    1.382624    5.753900   12.208548
     212       0       1    0.000000    0.815490    6.744429   13.119170
     213       0       1    0.000000   -0.462479    6.448356   13.848709
     214       0       1    0.000000   -0.355513    7.032219   15.227361
     215       0       1    0.000000   -0.927506    6.321632   16.367535
     216       0       1    0.000000   -0.171425    6.248103   17.662133
     217       0       1    0.000000   -0.399090    4.888340   18.255647
     218       0       1    0.000000    5.717609    4.204628    0.550473
     219       0       1    0.000000    5.937238    2.734944    0.338722
     220       0       1    0.000000    0.034179    1.988981   17.837931
     221       0       1    0.000000    0.617193    0.970736   16.901807
     222       0       1    0.000000    2.056707    0.726186   16.893710
     223       0       1    0.000000    2.780417    0.548333   15.590778
     224       0       1    0.000000    2.044933    0.619858   14.331411
     225       0       1    0.000000    2.632913    1.350309   13.159347
     226       0       1    0.000000    1.516534    2.053158   12.443290
     227       0       1    0.000000    1.737985    3.375906   11.865944
     228       0       1    0.000000    0.687717    4.439591   12.001939
     229       0       1    0.000000   -0.555489    4.151575   12.711636
     230       0       1    0.000000   -1.138473    5.169813   13.647729
     231       0       1    0.000000   -1.726475    4.439357   14.819804
     232       0       1    0.000000   -1.622421    5.007324   16.160944
     233       0       1    0.000000   -1.295851    4.121505   17.327859
     234       0       1    0.000000   -1.082205    2.691824   17.121877
     235       0       1    0.000000   -1.189153    2.107966   15.743225
     236       0       1    0.000000   -1.506846    2.969687   14.608070
     237       0       1    0.000000   -0.783116    2.791822   13.305131
     238       0       1    0.000000    0.238571    1.757089   13.172835
     239       0       1    0.000000    0.565156    0.871263   14.339743
     240       0       1    0.000000   -0.138876    1.044295   15.607218
     241       0       2   -0.030000   -0.743373    5.442896    6.223388
     242       0       3    0.000000    1.382216   16.188717    7.071719
     243       0       4   -0.115000    1.634982    1.568142   10.257477
     244       0       4   -0.115000    4.189083   15.892868   12.090589
     245       0       4   -0.115000    6.162909   15.955699    4.831364
     246       0       4   -0.115000    0.797751   12.712228   11.077657
     247       0       5   -0.500000   -0.942553    3.609018   11.653641
     248       0       6   -0.170000    1.474492    5.315369   17.783669
     249       0       4   -0.115000   -1.005752    1.919718    5.480324
     250       0       7   -0.120000    2.300054    3.154782    6.617237
     251       0       7   -0.120000    9.330206    1.425472    4.345180
     252       0       7   -0.120000    7.326801    4.562986    4.247351
     253       0       8    0.700000    9.443704   14.758745    2.523536
     254       0       9   -0.180000    7.229784    7.578355    2.025547
     255       0      10    0.115000    0.291018    1.415265   12.962163
     256       0      10    0.115000    0.467653   15.456299    9.906069
     257       0      10    0.115000   -1.594677   13.871333   13.134964
     258       0      10    0.115000    1.219260   13.416226    8.179880
     259       0      10    0.115000    6.634170    1.844580    3.054009
     260       0      11    0.060000    5.163236    2.306906    5.289003
     261       0      11    0.060000    7.302100    2.746331    9.370597
     262       0      11    0.060000    2.686453    5.900498    2.359734
     263       0      11    0.060000    3.247442    0.613882    4.899692
     264       0      11    0.060000    7.344038    2.103951    6.624862
     265       0      11    0.060000    4.169824    4.420143    4.272677
     266       0      11    0.060000    0.904971    5.719020   10.999941
     267       0      11    0.060000    1.950417    5.768722    4.828134
     268       0      11    0.060000    9.493432    9.280740    0.555971
     269       0       2   -0.030000    6.992261   12.227819    4.729564
     270       0       3    0.000000    0.729236    8.138567    0.529234
     271       0       4   -0.115000   -1.398500    9.875825   17.306440
     272       0       4   -0.115000   -4.025465    8.453093   15.032189
     273       0       4   -0.115000   12.957723    5.119440    2.361512
     274       0       4   -0.115000   -2.720253    4.867764   17.853576
     275       0       5   -0.500000   -0.367228   13.255052   18.125826
     276       0       6   -0.170000   -1.541828   14.276113    8.328204
     277       0       4   -0.115000    4.619075   10.205900    2.501387
     278       0       7   -0.120000    1.515270   11.264002    4.147265
     279       0       7   -0.120000   10.511349    8.010811    6.299523
     280       0       7   -0.120000   10.516542   11.619506    5.723669
     281       0       8    0.700000   -2.257055    6.266692    9.685300
     282       0       9   -0.180000    9.207344   14.908514    6.575028
     283       0      10    0.115000   -1.823966   12.923992   15.613686
     284       0      10    0.115000    1.192572   11.160747   16.674789
     285       0      10    0.115000    1.787514    7.070788   13.746548
     286       0      10    0.115000    5.219545    5.177041    1.983612
     287       0      10    0.115000   -0.695952    9.729462    5.590086
     288       0      11    0.060000   12.344889   12.124851    3.308024
     289       0      11    0.060000    0.116965   10.985746    1.435777
     290       0      11    0.060000    4.477344   10.399245    5.815007
     291       0      11    0.060000    1.795503    8.438545    5.599111
     292       0      11    0.060000    8.580040    9.562366    4.029494
     293       0      11    0.060000   -0.291171   12.342632    6.415628
     294       0      11    0.060000   -1.215456    0.575645    8.619635
     295       0      11    0.060000    1.817782   14.370178    4.457946
     296       0      11    0.060000   10.100085   16.125104    9.263726
     297       0       2   -0.030000    9.956703   13.443442   10.877043
     298       0       3    0.000000    7.957446    0.241280   11.551061
     299       0       4   -0.115000    6.623173   14.284760    9.128791
     300       0       4   -0.115000    4.822088    0.860964    8.280732
     301       0       4   -0.115000    5.058855    2.943650   11.687063
     302       0       4   -0.115000    9.473450    4.320876    7.169364
     303       0       5   -0.500000    9.025932    8.982931    9.361370
     304       0       6   -0.170000    3.872825   11.835185   16.151537
     305       0       4   -0.115000    9.597973   15.146252   14.677468
     306       0       7   -0.120000    6.871794   13.291088   12.782204
     307       0       7   -0.120000   -0.755974   16.399672   15.241348
     308       0       7   -0.120000    1.028579   13.288292   14.666527
     309       0       8    0.700000   -0.158833    3.597312   15.197271
     310       0       9   -0.180000    7.532652   11.571469    0.937044
     311       0      10    0.115000    8.746169   11.993169    8.171183
     312       0      10    0.115000    7.900621    0.404740    8.410543
     313       0      10    0.115000   10.723818    4.160639    4.304314
     314       0      10    0.115000    8.091064    3.300699   12.023064
     315       0      10    0.115000    2.341816   16.067876   14.683815
     316       0      11    0.060000    3.704880   12.968536   13.177135
     317       0      11    0.060000    3.152379   14.695474    9.421532
     318       0      11    0.060000    6.600311   16.073782   14.211729
     319       0      11    0.060000    2.707651    1.761291   13.446477
     320       0      11    0.060000    1.026243   15.590718   12.468815
     321       0      11    0.060000    4.636341   14.506987   15.029656
     322       0      11    0.060000    7.856863    9.744537    6.682515
     323       0      11    0.060000    7.444865   11.326312   10.269726
     324       0      11    0.060000    4.310603    7.320770    0.707401
     325       0       2   -0.030000    3.542307    4.777783   14.915359
     326       0       3    0.000000    6.334359    9.143588   16.395305
     327       0       4   -0.115000   10.127416    6.220963    0.119310
     328       0       4   -0.115000   11.562669    9.037137    2.822290
     329       0       4   -0.115000   -4.438173   11.952063   16.853843
     330       0       4   -0.115000   11.152655   11.987745    0.365099
     331       0       5   -0.500000    8.652244    1.231001    0.850838
     332       0       6   -0.170000   10.096103    2.621466   10.167044
     333       0       4   -0.115000    2.489464    8.379399   16.720202
     334       0       7   -0.120000    7.093905    5.600302   14.020820
     335       0       7   -0.120000   -1.557162   10.658958   13.100260
     336       0       7   -0.120000   -1.246793    6.720954   13.323162
     337       0       8    0.700000   -1.831083   10.835449    9.043102
     338       0       9   -0.180000   -1.868560   16.548154   11.627968
     339       0      10    0.115000    7.784581    3.913746    1.420347
     340       0      10    0.115000    9.838086    6.445203    3.424333
     341       0      10    0.115000    9.694121   11.541493    2.928055
     342       0      10    0.115000    6.540158   12.652564   15.730659
     343       0      10    0.115000    7.915350   10.818578   14.307607
     344       0      11    0.060000   -3.659002    5.312489   14.930676
     345       0      11    0.060000    8.036555    6.377326   16.864103
     346       0      11    0.060000    4.550544    7.687392   14.312773
     347       0      11    0.060000    9.668347    7.719422   12.006307
     348       0      11    0.060000   -0.599414    6.886671   16.416432
     349       0      11    0.060000   10.110312    4.902724   12.295030
     350       0      11    0.060000   10.233766    1.286388    7.396434
     351       0      11    0.060000    6.960848    2.424185   14.126015
     352       0      11    0.060000   -1.553472    3.139633    8.360996
     353       0      10    0.115000    2.320816    8.345546    3.103761
     354       0      10    0.115000    3.218306    4.097500    9.522668
     355       0       4   -0.115000    4.698578    7.372844    4.937087
     356       0       4   -0.115000    5.560677    4.693907    7.531575
     357       0       4   -0.115000    3.904323    6.530213   11.458727
     358       0       4   -0.115000    7.695084    5.778464   10.359108
     359       0       4   -0.115000    6.685236    8.943736   12.212292
     360       0       4   -0.115000    5.461560    8.605411    8.519275
     361       0      10    0.115000    1.987317    3.918196   12.321593
     362       0      10    0.115000    9.367070   10.443276   11.896989
     363       0      10    0.115000    7.865591    6.977679    7.563929
     364       0      10    0.115000    7.750621    7.430633    5.112015
     365       0      10    0.115000    5.391394   10.995560   13.994517
     366       0      10    0.115000    6.161397   11.515207    7.756183
     367       0       4   -0.115000    2.618443   10.065490   13.423000
     368       0       4   -0.115000    4.323961   11.653343   10.420124
     369       0       4   -0.115000    3.927571   13.439888    6.584050
     370       0       4   -0.115000    1.913833   10.484512    7.822093
     371       0       4   -0.115000    2.274221    6.628190    8.045953
     372       0       4   -0.115000    0.655742    8.676078   10.768613
     373       0      10    0.115000    3.967508   13.054225    3.439085
     374       0      10    0.115000   -0.338865    8.216166    7.654801
     375       0      10    0.115000    0.597821    4.193213    9.022044
     376       0      10    0.115000    0.163758    8.944155   14.858800
     377       0      10    0.115000    0.876082    0.047812    3.698955
     378       0      10    0.115000    2.503722   12.033377    1.113514
     379       0       4   -0.115000   -1.318859   14.860158    4.877291
     380       0       4   -0.115000    0.294116   14.182244    1.593172
     381       0       4   -0.115000    6.674739   15.301674   17.362148
     382       0       4   -0.115000    2.785888   14.867651   17.527034
     383       0       4   -0.115000    4.613932    1.235200   15.751876
     384       0       4   -0.115000   12.244595    0.999256    1.861700
     385       0      10    0.115000    9.826333   12.312906   13.762310
     386       0      10    0.115000    1.768667    1.113246   16.815741
     387       0      10    0.115000    6.509099   16.288612    1.703825
     388       0      10    0.115000   10.312394    3.454328    1.738731
     389       0      10    0.115000    8.028054    0.883259   15.821908
     390       0      10    0.115000    3.961540    3.539960   17.648055
     391       0       4   -0.115000   -3.568017    2.282874   14.047877
     392       0       4   -0.115000    7.294053    3.410381   17.307893
     393       0       4   -0.115000    2.015669    2.751017    2.822238
     394       0       4   -0.115000    5.066010    2.395126    0.560889
     395       0       4   -0.115000    3.508615   15.811999    2.162985
     396       0       4   -0.115000   -3.380037    1.016649   17.780651
     397       0      10    0.115000    0.074529    7.504923    4.039341
     398       0      10    0.115000    6.039940   13.874085    2.197663
     399       0      10    0.115000    0.029765   16.083382   18.034390
     400       0      10    0.115000   -2.774674   14.633007   17.513737

   Bonds


   Angles


   Dihedrals


