********************************************************************************
*                       GENERAL UTILITY LATTICE PROGRAM                        *
*                                 Julian Gale                                  *
*                      Nanochemistry Research Institute                        *
*                           Department of Chemistry                            *
*                    Curtin University, Western Australia                      *
********************************************************************************
* Version = 4.1.0 * Last modified =  21st June 2013                            *
********************************************************************************

**** Warning - inter/intra/both directive given on potential line ****
**** but the molecule directive is currently inactive             ****

**** Warning - inter/intra/both directive given on potential line ****
**** but the molecule directive is currently inactive             ****

**** Warning - inter/intra/both directive given on potential line ****
**** but the molecule directive is currently inactive             ****

**** Warning - inter/intra/both directive given on potential line ****
**** but the molecule directive is currently inactive             ****

**** Warning - inter/intra/both/bond directive given on potential line ****
**** but the molecule directive is currently inactive                  ****

**** Warning - inter/intra/both/bond directive given on potential line ****
**** but the molecule directive is currently inactive                  ****

**** Warning - inter/intra/both/bond directive given on potential line ****
**** but the molecule directive is currently inactive                  ****

**** Warning - inter/intra/both/bond directive given on potential line ****
**** but the molecule directive is currently inactive                  ****

**** Warning - inter/intra/both/bond directive given on potential line ****
**** but the molecule directive is currently inactive                  ****

**** Warning - inter/intra/both/bond directive given on potential line ****
**** but the molecule directive is currently inactive                  ****

**** Warning - inter/intra/both/bond directive given on potential line ****
**** but the molecule directive is currently inactive                  ****

**** Warning - inter/intra/both/bond directive given on potential line ****
**** but the molecule directive is currently inactive                  ****
*  optimise     - perform optimisation run                                     *
*  phonon       - calculate phonons for final geometry                         *
*  thermal      - calculate thermal conductivity for final geometry            *
********************************************************************************

  Job Started  at 19:43.17  7th July       2013                               

  Number of CPUs =     1


  Total number of configurations input =   1

********************************************************************************
*  Input for Configuration =   1                                               *
********************************************************************************

  Formula = C312O8H80                                                   

  Number of irreducible atoms/shells =     400


  Total number atoms/shells =     400

  Dimensionality = 3               :  Bulk   



  Cartesian lattice vectors (Angstroms) :

       13.757000    0.000000    0.000000
        0.000000   16.634000    0.000000
       -5.030695    0.000000   18.401740

  Cell parameters (Angstroms/Degrees):

  a =      13.7570    alpha =  90.0000
  b =      16.6340    beta  = 105.2900
  c =      19.0770    gamma =  90.0000

  Initial cell volume =        4210.942670 Angs**3

  Temperature of configuration = 0.5000E+05 K 

  Pressure of configuration =         0.000 GPa 

  Fractional coordinates of asymmetric unit :

--------------------------------------------------------------------------------
   No.  Atomic       x           y          z         Charge      Occupancy
        Label      (Frac)      (Frac)     (Frac)        (e)         (Frac)  
--------------------------------------------------------------------------------
      1 C1    c    0.215559    0.184381    0.392082     0.00000    1.000000    
      2 C1    c    0.165164 *  0.126488 *  0.323448 *   0.00000    1.000000    
      3 C1    c    0.083390 *  0.072743 *  0.333990 *   0.00000    1.000000    
      4 C1    c    0.059361 *  0.064386 *  0.399473 *   0.00000    1.000000    
      5 C1    c    0.105190 *  0.116689 *  0.461587 *   0.00000    1.000000    
      6 C1    c    0.172979 *  0.175243 *  0.455935 *   0.00000    1.000000    
      7 C1    c    0.164479 *  0.254479 *  0.484574 *   0.00000    1.000000    
      8 C1    c    0.187314 *  0.313635 *  0.435502 *   0.00000    1.000000    
      9 C1    c    0.209709 *  0.271492 *  0.375291 *   0.00000    1.000000    
     10 C1    c    0.176470 *  0.303114 *  0.306656 *   0.00000    1.000000    
     11 C1    c    0.129688 *  0.250631 *  0.244325 *   0.00000    1.000000    
     12 C1    c    0.120267 *  0.169232 *  0.253943 *   0.00000    1.000000    
     13 C1    c    0.026815 *  0.129975 *  0.218240 *   0.00000    1.000000    
     14 C1    c    0.003988 *  0.071300 *  0.267529 *   0.00000    1.000000    
     15 C1    c    0.904692 *  0.056631 *  0.266931 *   0.00000    1.000000    
     16 C1    c    0.879535 *  0.045690 *  0.335294 *   0.00000    1.000000    
     17 C1    c    0.955097 *  0.050619 *  0.399799 *   0.00000    1.000000    
     18 C1    c    0.936205 *  0.092822 *  0.461641 *   0.00000    1.000000    
     19 C1    c    0.028026 *  0.134003 *  0.499246 *   0.00000    1.000000    
     20 C1    c    0.023156 *  0.209330 *  0.529461 *   0.00000    1.000000    
     21 C1    c    0.092542 *  0.271492 *  0.522016 *   0.00000    1.000000    
     22 C1    c    0.040335 *  0.347902 *  0.511636 *   0.00000    1.000000    
     23 C1    c    0.062358 *  0.404232 *  0.464521 *   0.00000    1.000000    
     24 C1    c    0.137837 *  0.387459 *  0.425829 *   0.00000    1.000000    
     25 C1    c    0.104720 *  0.420644 *  0.354151 *   0.00000    1.000000    
     26 C1    c    0.122358 *  0.378923 *  0.295244 *   0.00000    1.000000    
     27 C1    c    0.044388 *  0.374233 *  0.227533 *   0.00000    1.000000    
     28 C1    c    0.049238 *  0.295659 *  0.196666 *   0.00000    1.000000    
     29 C1    c    0.960603 *  0.256523 *  0.159822 *   0.00000    1.000000    
     30 C1    c    0.949452 *  0.172177 *  0.171071 *   0.00000    1.000000    
     31 C1    c    0.845253 *  0.157569 *  0.171179 *   0.00000    1.000000    
     32 C1    c    0.823501 *  0.100757 *  0.218240 *   0.00000    1.000000    
     33 C1    c    0.748148 *  0.117651 *  0.256878 *   0.00000    1.000000    
     34 C1    c    0.782521 *  0.084225 *  0.329208 *   0.00000    1.000000    
     35 C1    c    0.764347 *  0.124444 *  0.387844 *   0.00000    1.000000    
     36 C1    c    0.843104 *  0.129434 *  0.455718 *   0.00000    1.000000    
     37 C1    c    0.837844 *  0.207827 *  0.486856 *   0.00000    1.000000    
     38 C1    c    0.926248 *  0.247565 *  0.523266 *   0.00000    1.000000    
     39 C1    c    0.936772 *  0.333053 *  0.512289 *   0.00000    1.000000    
     40 C1    c    0.858767 *  0.375436 *  0.465554 *   0.00000    1.000000    
     41 C1    c    0.881899 *  0.434712 *  0.416102 *   0.00000    1.000000    
     42 C1    c    0.981563 *  0.448900 *  0.415722 *   0.00000    1.000000    
     43 C1    c    0.007864 *  0.458879 *  0.347304 *   0.00000    1.000000    
     44 C1    c    0.933286 *  0.454310 *  0.282310 *   0.00000    1.000000    
     45 C1    c    0.951815 *  0.411747 *  0.221066 *   0.00000    1.000000    
     46 C1    c    0.859214 *  0.370867 *  0.182917 *   0.00000    1.000000    
     47 C1    c    0.863767 *  0.295840 *  0.153029 *   0.00000    1.000000    
     48 C1    c    0.792960 *  0.233738 *  0.160365 *   0.00000    1.000000    
     49 C1    c    0.720203 *  0.250150 *  0.197155 *   0.00000    1.000000    
     50 C1    c    0.697210 *  0.190994 *  0.246390 *   0.00000    1.000000    
     51 C1    c    0.678219 *  0.233438 *  0.307960 *   0.00000    1.000000    
     52 C1    c    0.711565 *  0.200733 *  0.377084 *   0.00000    1.000000    
     53 C1    c    0.756792 *  0.252495 *  0.438545 *   0.00000    1.000000    
     54 C1    c    0.767481 *  0.333774 *  0.427623 *   0.00000    1.000000    
     55 C1    c    0.733101 *  0.368041 *  0.355075 *   0.00000    1.000000    
     56 C1    c    0.689449 *  0.318685 *  0.296928 *   0.00000    1.000000    
     57 C1    c    0.715234 *  0.329025 *  0.228294 *   0.00000    1.000000    
     58 C1    c    0.783372 *  0.388061 *  0.221012 *   0.00000    1.000000    
     59 C1    c    0.829452 *  0.439642 *  0.283017 *   0.00000    1.000000    
     60 C1    c    0.804074 *  0.429842 *  0.348391 *   0.00000    1.000000    
     61 C1    c    0.284432 *  0.684381 *  0.107925 *   0.00000    1.000000    
     62 C1    c    0.334827 *  0.626488 *  0.176559 *   0.00000    1.000000    
     63 C1    c    0.416601 *  0.572743 *  0.166017 *   0.00000    1.000000    
     64 C1    c    0.440631 *  0.564386 *  0.100534 *   0.00000    1.000000    
     65 C1    c    0.394801 *  0.616689 *  0.038420 *   0.00000    1.000000    
     66 C1    c    0.327013 *  0.675243 *  0.044072 *   0.00000    1.000000    
     67 C1    c    0.335512 *  0.754479 *  0.015433 *   0.00000    1.000000    
     68 C1    c    0.312677 *  0.813635 *  0.064505 *   0.00000    1.000000    
     69 C1    c    0.290282 *  0.771492 *  0.124716 *   0.00000    1.000000    
     70 C1    c    0.323522 *  0.803114 *  0.193351 *   0.00000    1.000000    
     71 C1    c    0.370303 *  0.750631 *  0.255682 *   0.00000    1.000000    
     72 C1    c    0.379725 *  0.669232 *  0.246064 *   0.00000    1.000000    
     73 C1    c    0.473176 *  0.629975 *  0.281767 *   0.00000    1.000000    
     74 C1    c    0.496004 *  0.571300 *  0.232478 *   0.00000    1.000000    
     75 C1    c    0.595299 *  0.556631 *  0.233076 *   0.00000    1.000000    
     76 C1    c    0.620456 *  0.545690 *  0.164713 *   0.00000    1.000000    
     77 C1    c    0.544895 *  0.550619 *  0.100208 *   0.00000    1.000000    
     78 C1    c    0.563786 *  0.592822 *  0.038366 *   0.00000    1.000000    
     79 C1    c    0.471965 *  0.634003 *  0.000761 *   0.00000    1.000000    
     80 C1    c    0.476836 *  0.709330 *  0.970546 *   0.00000    1.000000    
     81 C1    c    0.407449 *  0.771492 *  0.977991 *   0.00000    1.000000    
     82 C1    c    0.459657 *  0.847902 *  0.988371 *   0.00000    1.000000    
     83 C1    c    0.437633 *  0.904232 *  0.035486 *   0.00000    1.000000    
     84 C1    c    0.362155 *  0.887459 *  0.074178 *   0.00000    1.000000    
     85 C1    c    0.395272 *  0.920644 *  0.145856 *   0.00000    1.000000    
     86 C1    c    0.377633 *  0.878923 *  0.204763 *   0.00000    1.000000    
     87 C1    c    0.455603 *  0.874233 *  0.272474 *   0.00000    1.000000    
     88 C1    c    0.450753 *  0.795659 *  0.303341 *   0.00000    1.000000    
     89 C1    c    0.539389 *  0.756523 *  0.340185 *   0.00000    1.000000    
     90 C1    c    0.550540 *  0.672177 *  0.328936 *   0.00000    1.000000    
     91 C1    c    0.654738 *  0.657569 *  0.328828 *   0.00000    1.000000    
     92 C1    c    0.676491 *  0.600757 *  0.281767 *   0.00000    1.000000    
     93 C1    c    0.751843 *  0.617651 *  0.243129 *   0.00000    1.000000    
     94 C1    c    0.717470 *  0.584225 *  0.170799 *   0.00000    1.000000    
     95 C1    c    0.735644 *  0.624444 *  0.112163 *   0.00000    1.000000    
     96 C1    c    0.656888 *  0.629434 *  0.044289 *   0.00000    1.000000    
     97 C1    c    0.662147 *  0.707827 *  0.013151 *   0.00000    1.000000    
     98 C1    c    0.573744 *  0.747565 *  0.976741 *   0.00000    1.000000    
     99 C1    c    0.563220 *  0.833053 *  0.987719 *   0.00000    1.000000    
    100 C1    c    0.641224 *  0.875436 *  0.034453 *   0.00000    1.000000    
    101 C1    c    0.618093 *  0.934712 *  0.083905 *   0.00000    1.000000    
    102 C1    c    0.518428 *  0.948900 *  0.084286 *   0.00000    1.000000    
    103 C1    c    0.492128 *  0.958879 *  0.152703 *   0.00000    1.000000    
    104 C1    c    0.566705 *  0.954310 *  0.217697 *   0.00000    1.000000    
    105 C1    c    0.548177 *  0.911747 *  0.278941 *   0.00000    1.000000    
    106 C1    c    0.640778 *  0.870867 *  0.317090 *   0.00000    1.000000    
    107 C1    c    0.636225 *  0.795840 *  0.346978 *   0.00000    1.000000    
    108 C1    c    0.707032 *  0.733738 *  0.339642 *   0.00000    1.000000    
    109 C1    c    0.779789 *  0.750150 *  0.302852 *   0.00000    1.000000    
    110 C1    c    0.802782 *  0.690994 *  0.253617 *   0.00000    1.000000    
    111 C1    c    0.821773 *  0.733438 *  0.192047 *   0.00000    1.000000    
    112 C1    c    0.788427 *  0.700733 *  0.122923 *   0.00000    1.000000    
    113 C1    c    0.743199 *  0.752495 *  0.061462 *   0.00000    1.000000    
    114 C1    c    0.732510 *  0.833774 *  0.072384 *   0.00000    1.000000    
    115 C1    c    0.766890 *  0.868041 *  0.144932 *   0.00000    1.000000    
    116 C1    c    0.810542 *  0.818685 *  0.203079 *   0.00000    1.000000    
    117 C1    c    0.784757 *  0.829025 *  0.271713 *   0.00000    1.000000    
    118 C1    c    0.716620 *  0.888061 *  0.278995 *   0.00000    1.000000    
    119 C1    c    0.670540 *  0.939642 *  0.216990 *   0.00000    1.000000    
    120 C1    c    0.695917 *  0.929842 *  0.151616 *   0.00000    1.000000    
    121 C1    c    0.784424 *  0.815619 *  0.607932 *   0.00000    1.000000    
    122 C1    c    0.834819 *  0.873512 *  0.676566 *   0.00000    1.000000    
    123 C1    c    0.916593 *  0.927257 *  0.666024 *   0.00000    1.000000    
    124 C1    c    0.940622 *  0.935614 *  0.600541 *   0.00000    1.000000    
    125 C1    c    0.894793 *  0.883311 *  0.538427 *   0.00000    1.000000    
    126 C1    c    0.827004 *  0.824757 *  0.544079 *   0.00000    1.000000    
    127 C1    c    0.835504 *  0.745521 *  0.515440 *   0.00000    1.000000    
    128 C1    c    0.812669 *  0.686365 *  0.564512 *   0.00000    1.000000    
    129 C1    c    0.790274 *  0.728508 *  0.624724 *   0.00000    1.000000    
    130 C1    c    0.823513 *  0.696886 *  0.693358 *   0.00000    1.000000    
    131 C1    c    0.870295 *  0.749369 *  0.755689 *   0.00000    1.000000    
    132 C1    c    0.879716 *  0.830768 *  0.746071 *   0.00000    1.000000    
    133 C1    c    0.973168 *  0.870025 *  0.781774 *   0.00000    1.000000    
    134 C1    c    0.995995 *  0.928700 *  0.732485 *   0.00000    1.000000    
    135 C1    c    0.095291 *  0.943369 *  0.733083 *   0.00000    1.000000    
    136 C1    c    0.120448 *  0.954310 *  0.664720 *   0.00000    1.000000    
    137 C1    c    0.044886 *  0.949381 *  0.600215 *   0.00000    1.000000    
    138 C1    c    0.063778 *  0.907178 *  0.538373 *   0.00000    1.000000    
    139 C1    c    0.971957 *  0.865997 *  0.500768 *   0.00000    1.000000    
    140 C1    c    0.976827 *  0.790670 *  0.470553 *   0.00000    1.000000    
    141 C1    c    0.907441 *  0.728508 *  0.477998 *   0.00000    1.000000    
    142 C1    c    0.959648 *  0.652098 *  0.488378 *   0.00000    1.000000    
    143 C1    c    0.937625 *  0.595768 *  0.535493 *   0.00000    1.000000    
    144 C1    c    0.862146 *  0.612541 *  0.574185 *   0.00000    1.000000    
    145 C1    c    0.895263 *  0.579356 *  0.645863 *   0.00000    1.000000    
    146 C1    c    0.877625 *  0.621077 *  0.704770 *   0.00000    1.000000    
    147 C1    c    0.955595 *  0.625767 *  0.772481 *   0.00000    1.000000    
    148 C1    c    0.950745 *  0.704341 *  0.803348 *   0.00000    1.000000    
    149 C1    c    0.039380 *  0.743477 *  0.840192 *   0.00000    1.000000    
    150 C1    c    0.050531 *  0.827823 *  0.828943 *   0.00000    1.000000    
    151 C1    c    0.154730 *  0.842431 *  0.828835 *   0.00000    1.000000    
    152 C1    c    0.176482 *  0.899243 *  0.781774 *   0.00000    1.000000    
    153 C1    c    0.251835 *  0.882349 *  0.743136 *   0.00000    1.000000    
    154 C1    c    0.217462 *  0.915775 *  0.670806 *   0.00000    1.000000    
    155 C1    c    0.235636 *  0.875556 *  0.612170 *   0.00000    1.000000    
    156 C1    c    0.156879 *  0.870566 *  0.544296 *   0.00000    1.000000    
    157 C1    c    0.162139 *  0.792173 *  0.513158 *   0.00000    1.000000    
    158 C1    c    0.073735 *  0.752435 *  0.476748 *   0.00000    1.000000    
    159 C1    c    0.063211 *  0.666947 *  0.487726 *   0.00000    1.000000    
    160 C1    c    0.141216 *  0.624564 *  0.534460 *   0.00000    1.000000    
    161 C1    c    0.118084 *  0.565288 *  0.583912 *   0.00000    1.000000    
    162 C1    c    0.018420 *  0.551100 *  0.584293 *   0.00000    1.000000    
    163 C1    c    0.992119 *  0.541121 *  0.652710 *   0.00000    1.000000    
    164 C1    c    0.066697 *  0.545690 *  0.717704 *   0.00000    1.000000    
    165 C1    c    0.048168 *  0.588253 *  0.778948 *   0.00000    1.000000    
    166 C1    c    0.140769 *  0.629133 *  0.817097 *   0.00000    1.000000    
    167 C1    c    0.136216 *  0.704160 *  0.846985 *   0.00000    1.000000    
    168 C1    c    0.207023 *  0.766262 *  0.839649 *   0.00000    1.000000    
    169 C1    c    0.279780 *  0.749850 *  0.802859 *   0.00000    1.000000    
    170 C1    c    0.302773 *  0.809006 *  0.753624 *   0.00000    1.000000    
    171 C1    c    0.321764 *  0.766562 *  0.692054 *   0.00000    1.000000    
    172 C1    c    0.288418 *  0.799267 *  0.622930 *   0.00000    1.000000    
    173 C1    c    0.243191 *  0.747505 *  0.561469 *   0.00000    1.000000    
    174 C1    c    0.232502 *  0.666226 *  0.572392 *   0.00000    1.000000    
    175 C1    c    0.266882 *  0.631959 *  0.644939 *   0.00000    1.000000    
    176 C1    c    0.310533 *  0.681315 *  0.703086 *   0.00000    1.000000    
    177 C1    c    0.284749 *  0.670975 *  0.771720 *   0.00000    1.000000    
    178 C1    c    0.216611 *  0.611939 *  0.779002 *   0.00000    1.000000    
    179 C1    c    0.170531 *  0.560358 *  0.716997 *   0.00000    1.000000    
    180 C1    c    0.195909 *  0.570158 *  0.651623 *   0.00000    1.000000    
    181 C1    c    0.715551 *  0.315619 *  0.892090 *   0.00000    1.000000    
    182 C1    c    0.665156 *  0.373512 *  0.823455 *   0.00000    1.000000    
    183 C1    c    0.583382 *  0.427257 *  0.833997 *   0.00000    1.000000    
    184 C1    c    0.559352 *  0.435614 *  0.899480 *   0.00000    1.000000    
    185 C1    c    0.605182 *  0.383311 *  0.961594 *   0.00000    1.000000    
    186 C1    c    0.672970 *  0.324757 *  0.955942 *   0.00000    1.000000    
    187 C1    c    0.664471 *  0.245521 *  0.984581 *   0.00000    1.000000    
    188 C1    c    0.687306 *  0.186365 *  0.935509 *   0.00000    1.000000    
    189 C1    c    0.709701 *  0.228508 *  0.875298 *   0.00000    1.000000    
    190 C1    c    0.676461 *  0.196886 *  0.806663 *   0.00000    1.000000    
    191 C1    c    0.629680 *  0.249369 *  0.744332 *   0.00000    1.000000    
    192 C1    c    0.620258 *  0.330768 *  0.753950 *   0.00000    1.000000    
    193 C1    c    0.526807 *  0.370025 *  0.718247 *   0.00000    1.000000    
    194 C1    c    0.503979 *  0.428700 *  0.767536 *   0.00000    1.000000    
    195 C1    c    0.404684 *  0.443369 *  0.766938 *   0.00000    1.000000    
    196 C1    c    0.379527 *  0.454310 *  0.835301 *   0.00000    1.000000    
    197 C1    c    0.455088 *  0.449381 *  0.899806 *   0.00000    1.000000    
    198 C1    c    0.436197 *  0.407178 *  0.961648 *   0.00000    1.000000    
    199 C1    c    0.528018 *  0.365997 *  0.999253 *   0.00000    1.000000    
    200 C1    c    0.523147 *  0.290670 *  0.029468 *   0.00000    1.000000    
    201 C1    c    0.592534 *  0.228508 *  0.022023 *   0.00000    1.000000    
    202 C1    c    0.540326 *  0.152098 *  0.011643 *   0.00000    1.000000    
    203 C1    c    0.562350 *  0.095768 *  0.964528 *   0.00000    1.000000    
    204 C1    c    0.637828 *  0.112541 *  0.925836 *   0.00000    1.000000    
    205 C1    c    0.604711 *  0.079356 *  0.854158 *   0.00000    1.000000    
    206 C1    c    0.622350 *  0.121077 *  0.795251 *   0.00000    1.000000    
    207 C1    c    0.544380 *  0.125767 *  0.727540 *   0.00000    1.000000    
    208 C1    c    0.549230 *  0.204341 *  0.696673 *   0.00000    1.000000    
    209 C1    c    0.460594 *  0.243477 *  0.659829 *   0.00000    1.000000    
    210 C1    c    0.449443 *  0.327823 *  0.671078 *   0.00000    1.000000    
    211 C1    c    0.345245 *  0.342431 *  0.671187 *   0.00000    1.000000    
    212 C1    c    0.323492 *  0.399243 *  0.718247 *   0.00000    1.000000    
    213 C1    c    0.248140 *  0.382349 *  0.756885 *   0.00000    1.000000    
    214 C1    c    0.282513 *  0.415775 *  0.829215 *   0.00000    1.000000    
    215 C1    c    0.264339 *  0.375556 *  0.887851 *   0.00000    1.000000    
    216 C1    c    0.343095 *  0.370566 *  0.955725 *   0.00000    1.000000    
    217 C1    c    0.337836 *  0.292173 *  0.986863 *   0.00000    1.000000    
    218 C1    c    0.426239 *  0.252435 *  0.023273 *   0.00000    1.000000    
    219 C1    c    0.436763 *  0.166947 *  0.012296 *   0.00000    1.000000    
    220 C1    c    0.358759 *  0.124564 *  0.965561 *   0.00000    1.000000    
    221 C1    c    0.381890 *  0.065288 *  0.916109 *   0.00000    1.000000    
    222 C1    c    0.481555 *  0.051100 *  0.915729 *   0.00000    1.000000    
    223 C1    c    0.507855 *  0.041121 *  0.847311 *   0.00000    1.000000    
    224 C1    c    0.433278 *  0.045690 *  0.782317 *   0.00000    1.000000    
    225 C1    c    0.451806 *  0.088253 *  0.721073 *   0.00000    1.000000    
    226 C1    c    0.359205 *  0.129133 *  0.682925 *   0.00000    1.000000    
    227 C1    c    0.363758 *  0.204160 *  0.653036 *   0.00000    1.000000    
    228 C1    c    0.292951 *  0.266262 *  0.660372 *   0.00000    1.000000    
    229 C1    c    0.220194 *  0.249850 *  0.697162 *   0.00000    1.000000    
    230 C1    c    0.197201 *  0.309006 *  0.746397 *   0.00000    1.000000    
    231 C1    c    0.178210 *  0.266562 *  0.807967 *   0.00000    1.000000    
    232 C1    c    0.211556 *  0.299267 *  0.877091 *   0.00000    1.000000    
    233 C1    c    0.256784 *  0.247505 *  0.938553 *   0.00000    1.000000    
    234 C1    c    0.267473 *  0.166226 *  0.927630 *   0.00000    1.000000    
    235 C1    c    0.233093 *  0.131959 *  0.855082 *   0.00000    1.000000    
    236 C1    c    0.189441 *  0.181315 *  0.796935 *   0.00000    1.000000    
    237 C1    c    0.215226 *  0.170975 *  0.728301 *   0.00000    1.000000    
    238 C1    c    0.283363 *  0.111939 *  0.721019 *   0.00000    1.000000    
    239 C1    c    0.329443 *  0.060358 *  0.783024 *   0.00000    1.000000    
    240 C1    c    0.304066 *  0.070158 *  0.848398 *   0.00000    1.000000    
    241 C7    c    0.275900 *  0.121678 *  0.363879 *  -0.03000    1.000000    
    242 C3    c    0.310337 *  0.049297 *  0.410939 *   0.00000    1.000000    
    243 C2    c    0.358595 *  0.059036 *  0.484465 *  -0.11500    1.000000    
    244 C2    c    0.393803 *  0.992485 *  0.528265 *  -0.11500    1.000000    
    245 C2    c    0.381802 *  0.916196 *  0.498431 *  -0.11500    1.000000    
    246 C2    c    0.334721 *  0.905855 *  0.425340 *  -0.11500    1.000000    
    247 O1    c    0.301640 *  0.250090 *  0.167702 *  -0.50000    1.000000    
    248 O2    c    0.466795 *  0.279127 *  0.194547 *  -0.17000    1.000000    
    249 C2    c    0.298397 *  0.971925 *  0.381866 *  -0.11500    1.000000    
    250 C5    c    0.351060 *  0.153361 *  0.323719 *  -0.12000    1.000000    
    251 C5    c    0.353426 *  0.105627 *  0.255845 *  -0.12000    1.000000    
    252 C5    c    0.423266 *  0.145786 *  0.215251 *  -0.12000    1.000000    
    253 C4    c    0.388716 *  0.229470 *  0.190145 *   0.70000    1.000000    
    254 C6    c    0.441468 *  0.362330 *  0.173788 *  -0.18000    1.000000    
    255 H1    c    0.366860 *  0.116088 *  0.504681 *   0.11500    1.000000    
    256 H1    c    0.431708 *  0.001503 *  0.581630 *   0.11500    1.000000    
    257 H1    c    0.410820 *  0.868522 *  0.529678 *   0.11500    1.000000    
    258 H1    c    0.322370 *  0.851689 *  0.402299 *   0.11500    1.000000    
    259 H1    c    0.260922 *  0.958278 *  0.328882 *   0.11500    1.000000    
    260 H2    c    0.332234 *  0.210713 *  0.309210 *   0.06000    1.000000    
    261 H2    c    0.425284 *  0.154082 *  0.361705 *   0.06000    1.000000    
    262 H2    c    0.280888 *  0.102381 *  0.218892 *   0.06000    1.000000    
    263 H2    c    0.377063 *  0.048515 *  0.270790 *   0.06000    1.000000    
    264 H2    c    0.492884 *  0.149092 *  0.246607 *   0.06000    1.000000    
    265 H2    c    0.425221 *  0.115607 *  0.169114 *   0.06000    1.000000    
    266 H2    c    0.391978 *  0.364915 *  0.127705 *   0.06000    1.000000    
    267 H2    c    0.410207 *  0.387880 *  0.214328 *   0.06000    1.000000    
    268 H2    c    0.510012 *  0.386317 *  0.170799 *   0.06000    1.000000    
    269 C7    c    0.224091 *  0.621678 *  0.136128 *  -0.03000    1.000000    
    270 C3    c    0.189654 *  0.549297 *  0.089068 *   0.00000    1.000000    
    271 C2    c    0.141396 *  0.559036 *  0.015542 *  -0.11500    1.000000    
    272 C2    c    0.106189 *  0.492485 *  0.971742 *  -0.11500    1.000000    
    273 C2    c    0.118189 *  0.416196 *  0.001576 *  -0.11500    1.000000    
    274 C2    c    0.165270 *  0.405855 *  0.074667 *  -0.11500    1.000000    
    275 O1    c    0.198352 *  0.750090 *  0.332306 *  -0.50000    1.000000    
    276 O2    c    0.033196 *  0.779127 *  0.305460 *  -0.17000    1.000000    
    277 C2    c    0.201594 *  0.471925 *  0.118141 *  -0.11500    1.000000    
    278 C5    c    0.148931 *  0.653361 *  0.176288 *  -0.12000    1.000000    
    279 C5    c    0.146566 *  0.605627 *  0.244162 *  -0.12000    1.000000    
    280 C5    c    0.076726 *  0.645786 *  0.284756 *  -0.12000    1.000000    
    281 C4    c    0.111276 *  0.729470 *  0.309862 *   0.70000    1.000000    
    282 C6    c    0.058524 *  0.862330 *  0.326219 *  -0.18000    1.000000    
    283 H1    c    0.133131 *  0.616088 *  0.995327 *   0.11500    1.000000    
    284 H1    c    0.068284 *  0.501503 *  0.918377 *   0.11500    1.000000    
    285 H1    c    0.089172 *  0.368522 *  0.970329 *   0.11500    1.000000    
    286 H1    c    0.177622 *  0.351689 *  0.097708 *   0.11500    1.000000    
    287 H1    c    0.239069 *  0.458278 *  0.171125 *   0.11500    1.000000    
    288 H2    c    0.167758 *  0.710713 *  0.190797 *   0.06000    1.000000    
    289 H2    c    0.074708 *  0.654082 *  0.138302 *   0.06000    1.000000    
    290 H2    c    0.219103 *  0.602381 *  0.281115 *   0.06000    1.000000    
    291 H2    c    0.122928 *  0.548515 *  0.229217 *   0.06000    1.000000    
    292 H2    c    0.007107 *  0.649092 *  0.253400 *   0.06000    1.000000    
    293 H2    c    0.074771 *  0.615607 *  0.330893 *   0.06000    1.000000    
    294 H2    c    0.108013 *  0.864915 *  0.372302 *   0.06000    1.000000    
    295 H2    c    0.089785 *  0.887880 *  0.285680 *   0.06000    1.000000    
    296 H2    c    0.989979 *  0.886317 *  0.329208 *   0.06000    1.000000    
    297 C7    c    0.724083 *  0.878322 *  0.636135 *  -0.03000    1.000000    
    298 C3    c    0.689646 *  0.950703 *  0.589075 *   0.00000    1.000000    
    299 C2    c    0.641388 *  0.940964 *  0.515549 *  -0.11500    1.000000    
    300 C2    c    0.606180 *  0.007515 *  0.471749 *  -0.11500    1.000000    
    301 C2    c    0.618181 *  0.083804 *  0.501583 *  -0.11500    1.000000    
    302 C2    c    0.665262 *  0.094145 *  0.574674 *  -0.11500    1.000000    
    303 O1    c    0.698343 *  0.749910 *  0.832313 *  -0.50000    1.000000    
    304 O2    c    0.533187 *  0.720873 *  0.805467 *  -0.17000    1.000000    
    305 C2    c    0.701586 *  0.028075 *  0.618148 *  -0.11500    1.000000    
    306 C5    c    0.648923 *  0.846639 *  0.676295 *  -0.12000    1.000000    
    307 C5    c    0.646557 *  0.894373 *  0.744169 *  -0.12000    1.000000    
    308 C5    c    0.576717 *  0.854214 *  0.784763 *  -0.12000    1.000000    
    309 C4    c    0.611267 *  0.770530 *  0.809869 *   0.70000    1.000000    
    310 C6    c    0.558515 *  0.637670 *  0.826226 *  -0.18000    1.000000    
    311 H1    c    0.633123 *  0.883912 *  0.495334 *   0.11500    1.000000    
    312 H1    c    0.568275 *  0.998497 *  0.418384 *   0.11500    1.000000    
    313 H1    c    0.589163 *  0.131478 *  0.470336 *   0.11500    1.000000    
    314 H1    c    0.677613 *  0.148311 *  0.597715 *   0.11500    1.000000    
    315 H1    c    0.739061 *  0.041722 *  0.671132 *   0.11500    1.000000    
    316 H2    c    0.667749 *  0.789287 *  0.690804 *   0.06000    1.000000    
    317 H2    c    0.574699 *  0.845918 *  0.638309 *   0.06000    1.000000    
    318 H2    c    0.719095 *  0.897619 *  0.781122 *   0.06000    1.000000    
    319 H2    c    0.622920 *  0.951485 *  0.729225 *   0.06000    1.000000    
    320 H2    c    0.507099 *  0.850908 *  0.753407 *   0.06000    1.000000    
    321 H2    c    0.574762 *  0.884393 *  0.830900 *   0.06000    1.000000    
    322 H2    c    0.608005 *  0.635085 *  0.872309 *   0.06000    1.000000    
    323 H2    c    0.589776 *  0.612120 *  0.785687 *   0.06000    1.000000    
    324 H2    c    0.489971 *  0.613683 *  0.829215 *   0.06000    1.000000    
    325 C7    c    0.775892 *  0.378322 *  0.863886 *  -0.03000    1.000000    
    326 C3    c    0.810329 *  0.450703 *  0.910946 *   0.00000    1.000000    
    327 C2    c    0.858587 *  0.440964 *  0.984472 *  -0.11500    1.000000    
    328 C2    c    0.893794 *  0.507515 *  0.028272 *  -0.11500    1.000000    
    329 C2    c    0.881794 *  0.583804 *  0.998438 *  -0.11500    1.000000    
    330 C2    c    0.834712 *  0.594145 *  0.925347 *  -0.11500    1.000000    
    331 O1    c    0.801631 *  0.249910 *  0.667709 *  -0.50000    1.000000    
    332 O2    c    0.966787 *  0.220873 *  0.694554 *  -0.17000    1.000000    
    333 C2    c    0.798389 *  0.528075 *  0.881873 *  -0.11500    1.000000    
    334 C5    c    0.851052 *  0.346639 *  0.823726 *  -0.12000    1.000000    
    335 C5    c    0.853417 *  0.394373 *  0.755852 *  -0.12000    1.000000    
    336 C5    c    0.923257 *  0.354214 *  0.715258 *  -0.12000    1.000000    
    337 C4    c    0.888707 *  0.270530 *  0.690152 *   0.70000    1.000000    
    338 C6    c    0.941459 *  0.137670 *  0.673795 *  -0.18000    1.000000    
    339 H1    c    0.866852 *  0.383912 *  0.004688 *   0.11500    1.000000    
    340 H1    c    0.931699 *  0.498497 *  0.081637 *   0.11500    1.000000    
    341 H1    c    0.910811 *  0.631478 *  0.029685 *   0.11500    1.000000    
    342 H1    c    0.822361 *  0.648311 *  0.902306 *   0.11500    1.000000    
    343 H1    c    0.760914 *  0.541722 *  0.828889 *   0.11500    1.000000    
    344 H2    c    0.832225 *  0.289287 *  0.809217 *   0.06000    1.000000    
    345 H2    c    0.925275 *  0.345918 *  0.861712 *   0.06000    1.000000    
    346 H2    c    0.780880 *  0.397619 *  0.718899 *   0.06000    1.000000    
    347 H2    c    0.877055 *  0.451485 *  0.770797 *   0.06000    1.000000    
    348 H2    c    0.992875 *  0.350908 *  0.746614 *   0.06000    1.000000    
    349 H2    c    0.925212 *  0.384393 *  0.669122 *   0.06000    1.000000    
    350 H2    c    0.891970 *  0.135085 *  0.627712 *   0.06000    1.000000    
    351 H2    c    0.910198 *  0.112120 *  0.714335 *   0.06000    1.000000    
    352 H2    c    0.010004 *  0.113683 *  0.670806 *   0.06000    1.000000    
    353 H1    c    0.413867 *  0.392990 *  0.356923 *   0.11500    1.000000    
    354 H1    c    0.469344 *  0.269869 *  0.486965 *   0.11500    1.000000    
    355 C2    c    0.515983 *  0.410304 *  0.431427 *  -0.11500    1.000000    
    356 C2    c    0.540437 *  0.356799 *  0.488758 *  -0.11500    1.000000    
    357 C2    c    0.621268 *  0.371288 *  0.547992 *  -0.11500    1.000000    
    358 C2    c    0.677320 *  0.440964 *  0.550002 *  -0.11500    1.000000    
    359 C2    c    0.652212 *  0.495070 *  0.492671 *  -0.11500    1.000000    
    360 C2    c    0.572260 *  0.479560 *  0.433057 *  -0.11500    1.000000    
    361 H1    c    0.637502 *  0.336299 *  0.590596 *   0.11500    1.000000    
    362 H1    c    0.730878 *  0.452387 *  0.593694 *   0.11500    1.000000    
    363 H1    c    0.694216 *  0.549898 *  0.495823 *   0.11500    1.000000    
    364 H1    c    0.551400 *  0.520320 *  0.390126 *   0.11500    1.000000    
    365 H1    c    0.586116 *  0.607010 *  0.643091 *   0.11500    1.000000    
    366 H1    c    0.530639 *  0.730131 *  0.513049 *   0.11500    1.000000    
    367 C2    c    0.484000 *  0.589696 *  0.568588 *  -0.11500    1.000000    
    368 C2    c    0.459546 *  0.643201 *  0.511256 *  -0.11500    1.000000    
    369 C2    c    0.378715 *  0.628712 *  0.452022 *  -0.11500    1.000000    
    370 C2    c    0.322663 *  0.559036 *  0.450012 *  -0.11500    1.000000    
    371 C2    c    0.347771 *  0.504930 *  0.507343 *  -0.11500    1.000000    
    372 C2    c    0.427723 *  0.520440 *  0.566957 *  -0.11500    1.000000    
    373 H1    c    0.362481 *  0.663701 *  0.409418 *   0.11500    1.000000    
    374 H1    c    0.269105 *  0.547613 *  0.406320 *   0.11500    1.000000    
    375 H1    c    0.305767 *  0.450102 *  0.504191 *   0.11500    1.000000    
    376 H1    c    0.448583 *  0.479680 *  0.609888 *   0.11500    1.000000    
    377 H1    c    0.086124 *  0.892990 *  0.143084 *   0.11500    1.000000    
    378 H1    c    0.030647 *  0.769869 *  0.013042 *   0.11500    1.000000    
    379 C2    c    0.984009 *  0.910304 *  0.068580 *  -0.11500    1.000000    
    380 C2    c    0.959554 *  0.856799 *  0.011249 *  -0.11500    1.000000    
    381 C2    c    0.878724 *  0.871288 *  0.952015 *  -0.11500    1.000000    
    382 C2    c    0.822671 *  0.940964 *  0.950005 *  -0.11500    1.000000    
    383 C2    c    0.847780 *  0.995070 *  0.007336 *  -0.11500    1.000000    
    384 C2    c    0.927732 *  0.979560 *  0.066950 *  -0.11500    1.000000    
    385 H1    c    0.862490 *  0.836299 *  0.909411 *   0.11500    1.000000    
    386 H1    c    0.769113 *  0.952387 *  0.906313 *   0.11500    1.000000    
    387 H1    c    0.805775 *  0.049898 *  0.004184 *   0.11500    1.000000    
    388 H1    c    0.948592 *  0.020320 *  0.109881 *   0.11500    1.000000    
    389 H1    c    0.913859 *  0.107010 *  0.856930 *   0.11500    1.000000    
    390 H1    c    0.969336 *  0.230131 *  0.986972 *   0.11500    1.000000    
    391 C2    c    0.015974 *  0.089696 *  0.931434 *  -0.11500    1.000000    
    392 C2    c    0.040429 *  0.143201 *  0.988765 *  -0.11500    1.000000    
    393 C2    c    0.121259 *  0.128712 *  0.047999 *  -0.11500    1.000000    
    394 C2    c    0.177312 *  0.059036 *  0.050009 *  -0.11500    1.000000    
    395 C2    c    0.152203 *  0.004930 *  0.992678 *  -0.11500    1.000000    
    396 C2    c    0.072251 *  0.020440 *  0.933064 *  -0.11500    1.000000    
    397 H1    c    0.137493 *  0.163701 *  0.090603 *   0.11500    1.000000    
    398 H1    c    0.230870 *  0.047613 *  0.093701 *   0.11500    1.000000    
    399 H1    c    0.194208 *  0.950102 *  0.995830 *   0.11500    1.000000    
    400 H1    c    0.051391 *  0.979680 *  0.890133 *   0.11500    1.000000    
--------------------------------------------------------------------------------


  Brillouin zone sampling points :

--------------------------------------------------------------------------------
  Point number          x          y          z            Weight
--------------------------------------------------------------------------------
        1           0.000000   0.000000   0.000000         1.0000
--------------------------------------------------------------------------------


********************************************************************************
*  General input information                                                   *
********************************************************************************

  Species output for all configurations : 

--------------------------------------------------------------------------------
  Species    Type    Atomic    Atomic    Charge       Radii (Angs)     Library
                     Number     Mass       (e)     Cova   Ionic  VDW   Symbol
--------------------------------------------------------------------------------
    C1       Core        6      12.01   0.000000   0.770  0.000  1.530          
    C7       Core        6      12.01  -0.030000   0.770  0.000  1.530          
    C3       Core        6      12.01   0.000000   0.770  0.000  1.530          
    C2       Core        6      12.01  -0.115000   0.770  0.000  1.530          
    O1       Core        8      16.00  -0.500000   0.730  0.000  1.360          
    O2       Core        8      16.00  -0.170000   0.730  0.000  1.360          
    C5       Core        6      12.01  -0.120000   0.770  0.000  1.530          
    C4       Core        6      12.01   0.700000   0.770  0.000  1.530          
    C6       Core        6      12.01  -0.180000   0.770  0.000  1.530          
    H1       Core        1       1.01   0.115000   0.370  0.000  1.080          
    H2       Core        1       1.01   0.060000   0.370  0.000  1.080          
--------------------------------------------------------------------------------


  Lattice summation method = Wolf et al

  Modified method - smoothed energy only / correct forces

  Eta    =     0.223000 Angstrom**-1
  Cutoff =    12.000000 Angstrom

  Time limit = Infinity

  Maximum range for interatomic potentials =    100000.000000 Angstroms

  General interatomic potentials :

--------------------------------------------------------------------------------
Atom  Types   Potential         A         B         C         D     Cutoffs(Ang)
  1     2                                                            Min    Max 
--------------------------------------------------------------------------------
C2   c C2   c Lenn/es 12  6 0.700E-01  3.55      0.00      0.00     0.000 12.000
C2   c C3   c Lenn/es 12  6 0.700E-01  3.55      0.00      0.00     0.000 12.000
C3   c C3   c Lenn/es 12  6 0.700E-01  3.55      0.00      0.00     0.000 12.000
C2   c C4   c Lenn/es 12  6 0.857E-01  3.65      0.00      0.00     0.000 12.000
C3   c C4   c Lenn/es 12  6 0.857E-01  3.65      0.00      0.00     0.000 12.000
C4   c C4   c Lenn/es 12  6 0.105      3.75      0.00      0.00     0.000 12.000
C2   c C5   c Lenn/es 12  6 0.680E-01  3.52      0.00      0.00     0.000 12.000
C3   c C5   c Lenn/es 12  6 0.680E-01  3.52      0.00      0.00     0.000 12.000
C4   c C5   c Lenn/es 12  6 0.832E-01  3.62      0.00      0.00     0.000 12.000
C5   c C5   c Lenn/es 12  6 0.660E-01  3.50      0.00      0.00     0.000 12.000
C2   c C6   c Lenn/es 12  6 0.680E-01  3.52      0.00      0.00     0.000 12.000
C3   c C6   c Lenn/es 12  6 0.680E-01  3.52      0.00      0.00     0.000 12.000
C4   c C6   c Lenn/es 12  6 0.832E-01  3.62      0.00      0.00     0.000 12.000
C5   c C6   c Lenn/es 12  6 0.660E-01  3.50      0.00      0.00     0.000 12.000
C6   c C6   c Lenn/es 12  6 0.660E-01  3.50      0.00      0.00     0.000 12.000
C2   c C7   c Lenn/es 12  6 0.680E-01  3.52      0.00      0.00     0.000 12.000
C3   c C7   c Lenn/es 12  6 0.680E-01  3.52      0.00      0.00     0.000 12.000
C4   c C7   c Lenn/es 12  6 0.832E-01  3.62      0.00      0.00     0.000 12.000
C5   c C7   c Lenn/es 12  6 0.660E-01  3.50      0.00      0.00     0.000 12.000
C6   c C7   c Lenn/es 12  6 0.660E-01  3.50      0.00      0.00     0.000 12.000
C7   c C7   c Lenn/es 12  6 0.660E-01  3.50      0.00      0.00     0.000 12.000
C2   c O1   c Lenn/es 12  6 0.121      3.24      0.00      0.00     0.000 12.000
C3   c O1   c Lenn/es 12  6 0.121      3.24      0.00      0.00     0.000 12.000
C4   c O1   c Lenn/es 12  6 0.148      3.33      0.00      0.00     0.000 12.000
C5   c O1   c Lenn/es 12  6 0.118      3.22      0.00      0.00     0.000 12.000
C6   c O1   c Lenn/es 12  6 0.118      3.22      0.00      0.00     0.000 12.000
C7   c O1   c Lenn/es 12  6 0.118      3.22      0.00      0.00     0.000 12.000
O1   c O1   c Lenn/es 12  6 0.210      2.96      0.00      0.00     0.000 12.000
C2   c O2   c Lenn/es 12  6 0.990E-01  3.21      0.00      0.00     0.000 12.000
C3   c O2   c Lenn/es 12  6 0.990E-01  3.21      0.00      0.00     0.000 12.000
C4   c O2   c Lenn/es 12  6 0.121      3.30      0.00      0.00     0.000 12.000
C5   c O2   c Lenn/es 12  6 0.961E-01  3.19      0.00      0.00     0.000 12.000
C6   c O2   c Lenn/es 12  6 0.961E-01  3.19      0.00      0.00     0.000 12.000
C7   c O2   c Lenn/es 12  6 0.961E-01  3.19      0.00      0.00     0.000 12.000
O1   c O2   c Lenn/es 12  6 0.171      2.93      0.00      0.00     0.000 12.000
O2   c O2   c Lenn/es 12  6 0.140      2.90      0.00      0.00     0.000 12.000
H1   c C2   c Lenn/es 12  6 0.458E-01  2.93      0.00      0.00     0.000 12.000
H1   c C3   c Lenn/es 12  6 0.458E-01  2.93      0.00      0.00     0.000 12.000
H1   c C4   c Lenn/es 12  6 0.561E-01  3.01      0.00      0.00     0.000 12.000
H1   c C5   c Lenn/es 12  6 0.445E-01  2.91      0.00      0.00     0.000 12.000
H1   c C6   c Lenn/es 12  6 0.445E-01  2.91      0.00      0.00     0.000 12.000
H1   c C7   c Lenn/es 12  6 0.445E-01  2.91      0.00      0.00     0.000 12.000
H1   c O1   c Lenn/es 12  6 0.794E-01  2.68      0.00      0.00     0.000 12.000
H1   c O2   c Lenn/es 12  6 0.648E-01  2.65      0.00      0.00     0.000 12.000
H1   c H1   c Lenn/es 12  6 0.300E-01  2.42      0.00      0.00     0.000 12.000
H2   c C2   c Lenn/es 12  6 0.458E-01  2.98      0.00      0.00     0.000 12.000
H2   c C3   c Lenn/es 12  6 0.458E-01  2.98      0.00      0.00     0.000 12.000
H2   c C4   c Lenn/es 12  6 0.561E-01  3.06      0.00      0.00     0.000 12.000
H2   c C5   c Lenn/es 12  6 0.445E-01  2.96      0.00      0.00     0.000 12.000
H2   c C6   c Lenn/es 12  6 0.445E-01  2.96      0.00      0.00     0.000 12.000
H2   c C7   c Lenn/es 12  6 0.445E-01  2.96      0.00      0.00     0.000 12.000
H2   c O1   c Lenn/es 12  6 0.794E-01  2.72      0.00      0.00     0.000 12.000
H2   c O2   c Lenn/es 12  6 0.648E-01  2.69      0.00      0.00     0.000 12.000
H1   c H2   c Lenn/es 12  6 0.300E-01  2.46      0.00      0.00     0.000 12.000
H2   c H2   c Lenn/es 12  6 0.300E-01  2.50      0.00      0.00     0.000 12.000
C2   c C2   c Harmonic       40.7      1.40      0.00      0.00     0.000 1 Bond
                                                                    single      
C2   c C3   c Harmonic       40.7      1.40      0.00      0.00     0.000 1 Bond
                                                                    single      
C3   c C7   c Harmonic       27.5      1.51      0.00      0.00     0.000 1 Bond
                                                                    single      
H1   c C2   c Harmonic       31.8      1.08      0.00      0.00     0.000 1 Bond
                                                                    single      
C5   c C7   c Harmonic       23.2      1.53      0.00      0.00     0.000 1 Bond
                                                                    single      
C5   c C5   c Harmonic       23.2      1.53      0.00      0.00     0.000 1 Bond
                                                                    single      
C1   c C7   c Harmonic       27.5      1.51      0.00      0.00     0.000 1 Bond
                                                                    single      
C4   c C5   c Harmonic       27.5      1.51      0.00      0.00     0.000 1 Bond
                                                                    single      
C6   c O2   c Harmonic       27.8      1.41      0.00      0.00     0.000 1 Bond
                                                                    single      
H2   c C5   c Harmonic       29.5      1.09      0.00      0.00     0.000 1 Bond
                                                                    single      
H2   c C6   c Harmonic       29.5      1.09      0.00      0.00     0.000 1 Bond
                                                                    single      
C4   c O1   c Harmonic       45.1      1.23      0.00      0.00     0.000 1 Bond
                                                                    single      
C4   c O2   c Harmonic       18.6      1.33      0.00      0.00     0.000 1 Bond
                                                                    single      
--------------------------------------------------------------------------------

  General Three-body potentials :

  Cosine Harmonic form:

--------------------------------------------------------------------------------
Atom    Atom    Atom           Force Constants            Theta     Cutoffs  
  1       2       3               (eV)                    (deg)  1-2  1-3  2-3
--------------------------------------------------------------------------------
C2    c C2    c C2    c                  5.4639184       120.000     Bonded
C3    c C2    c C2    c                  5.4639184       120.000     Bonded
C2    c C3    c C7    c                  6.0710205       120.000     Bonded
C2    c H1    c C2    c                  3.0355102       120.000     Bonded
C3    c H1    c C2    c                  3.0355102       120.000     Bonded
C7    c C5    c C5    c                  5.0606292       112.700     Bonded
C5    c C5    c C5    c                  5.0606292       112.700     Bonded
C5    c C3    c C7    c                  5.4639184       114.000     Bonded
C5    c C1    c C7    c                  5.4639184       114.000     Bonded
C1    c C1    c C7    c                  3.4691546       109.500     Bonded
C5    c C4    c C5    c                  5.4639184       111.100     Bonded
C7    c H2    c C5    c                  3.2523324       110.700     Bonded
C5    c H2    c C5    c                  3.2523324       110.700     Bonded
C6    c H2    c C6    c                  3.2523324       110.700     Bonded
C4    c H2    c C5    c                  3.0355102       109.500     Bonded
O2    c H2    c C6    c                  3.0355102       109.500     Bonded
H2    c H2    c C5    c                  2.8620525       107.800     Bonded
C1    c C5    c C7    c                  5.4639184       111.100     Bonded
C1    c C3    c C7    c                  3.4691546       109.500     Bonded
C5    c C4    c O2    c                  7.0250380       111.400     Bonded
C5    c C4    c O1    c                  6.9383091       120.400     Bonded
O2    c C4    c O1    c                  7.1984957       123.400     Bonded
C4    c C6    c O2    c                  7.1984957       116.900     Bonded
C1    c C1    c C7    c                  6.0710205       120.000     Bonded
--------------------------------------------------------------------------------

  General Four-body potentials :

  Standard form:

--------------------------------------------------------------------------------
         Atom Types             Force cst Sign Phase Phi0         Cutoffs
   1       2       3       4       (eV)                     1-2  2-3  3-4  4-1
--------------------------------------------------------------------------------
H1    c C2    c C2    c H1    c  0.3144     -   2     0.00  2.00 2.00 2.00 2.00
H1    c C2    c C2    c C2    c  0.3144     -   2     0.00  2.00 2.00 2.00 2.00
H1    c C2    c C2    c C3    c  0.3144     -   2     0.00  2.00 2.00 2.00 2.00
H1    c C2    c C3    c C7    c  0.3144     -   2     0.00  2.00 2.00 2.00 2.00
C7    c C5    c C5    c C5    c  0.2819E-01 +   1     0.00  2.00 2.00 2.00 2.00
C7    c C5    c C5    c C5    c  -.1084E-02 -   2     0.00  2.00 2.00 2.00 2.00
C7    c C5    c C5    c C5    c  0.4336E-02 +   3     0.00  2.00 2.00 2.00 2.00
C5    c C5    c C5    c H2    c  0.6505E-02 +   3     0.00  2.00 2.00 2.00 2.00
C7    c C5    c C5    c H2    c  0.6505E-02 +   3     0.00  2.00 2.00 2.00 2.00
H2    c C5    c C5    c H2    c  0.6505E-02 +   3     0.00  2.00 2.00 2.00 2.00
O1    c C4    c C5    c C5    c  -.6006E-02 +   1     0.00  2.00 2.00 2.00 2.00
O1    c C4    c C5    c C5    c  0.2663E-01 -   2     0.00  2.00 2.00 2.00 2.00
O1    c C4    c C5    c C5    c  -.1505E-01 +   3     0.00  2.00 2.00 2.00 2.00
O2    c C4    c C5    c C5    c  -.1199E-01 -   2     0.00  2.00 2.00 2.00 2.00
O2    c C4    c C5    c H2    c  0.2862E-02 -   2     0.00  2.00 2.00 2.00 2.00
C5    c C4    c O2    c C6    c  0.1012     +   1     0.00  2.00 2.00 2.00 2.00
C5    c C4    c O2    c C6    c  0.1111     -   2     0.00  2.00 2.00 2.00 2.00
O1    c C4    c O2    c C6    c  0.1111     -   2     0.00  2.00 2.00 2.00 2.00
C4    c O2    c C6    c H2    c  0.4293E-02 +   3     0.00  2.00 2.00 2.00 2.00
C1    c C7    c C5    c C5    c  0.2819E-01 +   1     0.00  2.00 2.00 2.00 2.00
C1    c C7    c C5    c C5    c  -.1084E-02 -   2     0.00  2.00 2.00 2.00 2.00
C1    c C7    c C5    c C5    c  0.4336E-02 +   3     0.00  2.00 2.00 2.00 2.00
C1    c C7    c C5    c H2    c  0.6505E-02 +   3     0.00  2.00 2.00 2.00 2.00
C1    c C1    c C7    c C3    c  0.3144     -   2     0.00  2.00 2.00 2.00 2.00
C1    c C1    c C7    c C5    c  0.3144     -   2     0.00  2.00 2.00 2.00 2.00
--------------------------------------------------------------------------------

  Bond-order two-body potentials :

--------------------------------------------------------------------------------
Atom  Types                 A                 B                  Cutoffs(Ang)   
  1     2                 ZetaA             ZetaB                Taper    Max   
--------------------------------------------------------------------------------
C1   c C1   c          1393.6000000000       346.7000000000     1.8000   2.1000
                          3.487900000          2.211900000    
--------------------------------------------------------------------------------

  Bond-order repulsive :

--------------------------------------------------------------------------------
Atom    Type         Alpha            N             Lambda          M           
 1/2     1/2                                                                    
--------------------------------------------------------------------------------
C1   c             0.00000000       0.72751000       2.21190000       3
C1   c
--------------------------------------------------------------------------------

  Bond-order attractive :

--------------------------------------------------------------------------------
Atom    Type         Alpha            N             Lambda          M           
 1/2     1/2           C              D                H                        
--------------------------------------------------------------------------------
C1   c  Theta       0.00000016       0.72751000       2.21190000       3
C1   c          38049.00000000       4.38400000      -0.57058000
--------------------------------------------------------------------------------

********************************************************************************
*  Output for configuration   1                                                *
********************************************************************************


  Components of energy : 

--------------------------------------------------------------------------------
  Interatomic potentials     =     6393853.83577107 eV
  Three-body potentials      =           0.00000000 eV
  Four-body potentials       =           0.00000000 eV
  Out of plane potentials    =           0.00000000 eV
  Bond-order potentials      =       -1592.22723066 eV
  Monopole - monopole (real) =         -20.63758270 eV
  Monopole - monopole (recip)=           0.00000000 eV
  Monopole - monopole (total)=         -20.63758270 eV
  Wolf sum self energy       =          -8.47010716 eV
--------------------------------------------------------------------------------
  Total lattice energy       =     6392232.50085056 eV
--------------------------------------------------------------------------------
  Total lattice energy       =       616752722.1092 kJ/(mole unit cells)
--------------------------------------------------------------------------------


  Number of variables =     1197

  Maximum number of calculations  =          1000
  Maximum Hessian update interval =            10
  Maximum step size               =   1.000000000
  Maximum parameter tolerance     =   0.000010000
  Maximum function  tolerance     =   0.000010000
  Maximum gradient  tolerance     =   0.001000000
  Maximum gradient  component     =   0.010000000

  Symmetry not applied to optimisation

  Newton-Raphson optimiser to be used

  BFGS hessian update to be used

  Start of bulk optimisation :

  Cycle:      0 Energy:   6392232.500851  Gnorm: 125626.933850  CPU:    0.712
  ** Hessian calculated **
  Cycle:      1 Energy:   2323188.673222  Gnorm:  48913.675408  CPU:    6.688
  ** Hessian calculated **
  Cycle:      2 Energy:   2295731.525027  Gnorm:  48877.416416  CPU:   12.600
  ** Hessian calculated **
  Cycle:      3 Energy:   1317143.179136  Gnorm:  36672.377470  CPU:   18.592
  ** Hessian calculated **
  Cycle:      4 Energy:    627156.299813  Gnorm:   9247.857540  CPU:   24.820
  ** Hessian calculated **
  Cycle:      5 Energy:    210090.800535  Gnorm:   3150.214504  CPU:   30.924
  ** Hessian calculated **
  Cycle:      6 Energy:    104154.430371  Gnorm:   1449.872918  CPU:   36.720
  ** Hessian calculated **
  Cycle:      7 Energy:     67844.811694  Gnorm:   1228.152610  CPU:   42.196
  ** Hessian calculated **
  Cycle:      8 Energy:     31676.468414  Gnorm:    468.005322  CPU:   48.240
  ** Hessian calculated **
  Cycle:      9 Energy:     29259.203397  Gnorm:    391.436364  CPU:   54.304
  ** Hessian calculated **
  Cycle:     10 Energy:     12640.227324  Gnorm:    168.241520  CPU:   59.880
  ** Hessian calculated **
  Cycle:     11 Energy:     12292.737784  Gnorm:    155.253054  CPU:   65.868
  ** Hessian calculated **
  Cycle:     12 Energy:     10945.240399  Gnorm:    155.232467  CPU:   71.596
  ** Hessian calculated **
  Cycle:     13 Energy:      5472.448819  Gnorm:    207.308091  CPU:   77.512
  ** Hessian calculated **
  Cycle:     14 Energy:      5009.768120  Gnorm:    211.635849  CPU:   82.760
  ** Hessian calculated **
  Cycle:     15 Energy:      2559.592435  Gnorm:     54.951545  CPU:   88.788
  ** Hessian calculated **
  Cycle:     16 Energy:       -33.220157  Gnorm:     16.757389  CPU:   94.728
  ** Hessian calculated **
  Cycle:     17 Energy:      -111.737549  Gnorm:     16.177303  CPU:   99.908
  ** Hessian calculated **
  Cycle:     18 Energy:      -813.478979  Gnorm:      9.291990  CPU:  104.824
  ** Hessian calculated **
  Cycle:     19 Energy:     -1019.066678  Gnorm:      5.597317  CPU:  109.952
  ** Hessian calculated **
  Cycle:     20 Energy:     -1092.867851  Gnorm:      4.316225  CPU:  114.860
  ** Hessian calculated **
  Cycle:     21 Energy:     -1096.791910  Gnorm:      4.245589  CPU:  120.816
  ** Hessian calculated **
  Cycle:     22 Energy:     -1377.534326  Gnorm:      2.047976  CPU:  126.120
  ** Hessian calculated **
  Cycle:     23 Energy:     -1465.586058  Gnorm:      1.536282  CPU:  130.796
  ** Hessian calculated **
  Cycle:     24 Energy:     -1466.677621  Gnorm:      1.499697  CPU:  136.792
  Cycle:     25 Energy:     -1467.502467  Gnorm:      1.475940  CPU:  138.332
  Cycle:     26 Energy:     -1467.997793  Gnorm:      1.461311  CPU:  139.624
  Cycle:     27 Energy:     -1468.706045  Gnorm:      1.446821  CPU:  140.908
  Cycle:     28 Energy:     -1472.581886  Gnorm:      1.384436  CPU:  143.192
  Cycle:     29 Energy:     -1478.274094  Gnorm:      1.281826  CPU:  145.480
  Cycle:     30 Energy:     -1481.144297  Gnorm:      1.229902  CPU:  146.764
  Cycle:     31 Energy:     -1485.245654  Gnorm:      1.183165  CPU:  149.064
  ** Hessian calculated **
  Cycle:     32 Energy:     -1523.860957  Gnorm:      0.830380  CPU:  154.040
  ** Hessian calculated **
  Cycle:     33 Energy:     -1525.813516  Gnorm:      0.804158  CPU:  159.948
  ** Hessian calculated **
  Cycle:     34 Energy:     -1590.361601  Gnorm:      0.976768  CPU:  165.116
  ** Hessian calculated **
  Cycle:     35 Energy:     -1611.829406  Gnorm:      0.380271  CPU:  169.776
  ** Hessian calculated **
  Cycle:     36 Energy:     -1622.602193  Gnorm:      0.275113  CPU:  174.712
  ** Hessian calculated **
  Cycle:     37 Energy:     -1633.939494  Gnorm:      0.307853  CPU:  179.924
  ** Hessian calculated **
  Cycle:     38 Energy:     -1642.395757  Gnorm:      0.240906  CPU:  184.588
  ** Hessian calculated **
  Cycle:     39 Energy:     -1649.626504  Gnorm:      0.272484  CPU:  189.240
  Cycle:     40 Energy:     -1653.504331  Gnorm:      0.272580  CPU:  190.748
  ** Hessian calculated **
  Cycle:     41 Energy:     -1659.725157  Gnorm:      0.123176  CPU:  195.428
  ** Hessian calculated **
  Cycle:     42 Energy:     -1666.223550  Gnorm:      0.140021  CPU:  200.364
  Cycle:     43 Energy:     -1669.049133  Gnorm:      0.109012  CPU:  201.864
  Cycle:     44 Energy:     -1672.756460  Gnorm:      0.084143  CPU:  203.124
  Cycle:     45 Energy:     -1674.463116  Gnorm:      0.101108  CPU:  204.128
  Cycle:     46 Energy:     -1675.381446  Gnorm:      0.103482  CPU:  205.132
  Cycle:     47 Energy:     -1676.318583  Gnorm:      0.084343  CPU:  206.372
  Cycle:     48 Energy:     -1677.813649  Gnorm:      0.069810  CPU:  207.620
  Cycle:     49 Energy:     -1679.046046  Gnorm:      0.063002  CPU:  208.864
  Cycle:     50 Energy:     -1680.289551  Gnorm:      0.060974  CPU:  210.104
  Cycle:     51 Energy:     -1681.254265  Gnorm:      0.055165  CPU:  211.104
  ** Hessian calculated **
  Cycle:     52 Energy:     -1682.743995  Gnorm:      0.039537  CPU:  215.692
  Cycle:     53 Energy:     -1683.727993  Gnorm:      0.041498  CPU:  216.932
  Cycle:     54 Energy:     -1684.848596  Gnorm:      0.041612  CPU:  218.172
  Cycle:     55 Energy:     -1685.773282  Gnorm:      0.040707  CPU:  219.172
  Cycle:     56 Energy:     -1686.358627  Gnorm:      0.036003  CPU:  220.176
  Cycle:     57 Energy:     -1686.954545  Gnorm:      0.036697  CPU:  221.424
  Cycle:     58 Energy:     -1687.634326  Gnorm:      0.035998  CPU:  222.668
  Cycle:     59 Energy:     -1688.091445  Gnorm:      0.032932  CPU:  223.672
  Cycle:     60 Energy:     -1688.727651  Gnorm:      0.030897  CPU:  224.920
  Cycle:     61 Energy:     -1689.286436  Gnorm:      0.028989  CPU:  226.164
  ** Hessian calculated **
  Cycle:     62 Energy:     -1689.836319  Gnorm:      0.021706  CPU:  230.744
  Cycle:     63 Energy:     -1690.306372  Gnorm:      0.023380  CPU:  232.000
  Cycle:     64 Energy:     -1690.900489  Gnorm:      0.026943  CPU:  233.256
  Cycle:     65 Energy:     -1691.392364  Gnorm:      0.030131  CPU:  234.256
  Cycle:     66 Energy:     -1691.808438  Gnorm:      0.025586  CPU:  235.252
  Cycle:     67 Energy:     -1692.262604  Gnorm:      0.020080  CPU:  236.252
  Cycle:     68 Energy:     -1692.643616  Gnorm:      0.020627  CPU:  237.488
  Cycle:     69 Energy:     -1692.953087  Gnorm:      0.019280  CPU:  238.488
  Cycle:     70 Energy:     -1693.241825  Gnorm:      0.017336  CPU:  239.484
  Cycle:     71 Energy:     -1693.467506  Gnorm:      0.017809  CPU:  240.720
  ** Hessian calculated **
  Cycle:     72 Energy:     -1693.649969  Gnorm:      0.012714  CPU:  245.200
  Cycle:     73 Energy:     -1693.849209  Gnorm:      0.013740  CPU:  246.440
  Cycle:     74 Energy:     -1694.079611  Gnorm:      0.013667  CPU:  247.680
  Cycle:     75 Energy:     -1694.276070  Gnorm:      0.013354  CPU:  248.672
  Cycle:     76 Energy:     -1694.382671  Gnorm:      0.011249  CPU:  249.668
  Cycle:     77 Energy:     -1694.494326  Gnorm:      0.010301  CPU:  250.908
  Cycle:     78 Energy:     -1694.598364  Gnorm:      0.010619  CPU:  252.144
  Cycle:     79 Energy:     -1694.697590  Gnorm:      0.010809  CPU:  253.388
  Cycle:     80 Energy:     -1694.818833  Gnorm:      0.011835  CPU:  254.632
  Cycle:     81 Energy:     -1694.951312  Gnorm:      0.012751  CPU:  255.628
  ** Hessian calculated **
  Cycle:     82 Energy:     -1695.069280  Gnorm:      0.009615  CPU:  260.104
  Cycle:     83 Energy:     -1695.168665  Gnorm:      0.010205  CPU:  261.104
  Cycle:     84 Energy:     -1695.306239  Gnorm:      0.010692  CPU:  262.344
  Cycle:     85 Energy:     -1695.452461  Gnorm:      0.011076  CPU:  263.588
  Cycle:     86 Energy:     -1695.603644  Gnorm:      0.012256  CPU:  264.584
  Cycle:     87 Energy:     -1695.736037  Gnorm:      0.011654  CPU:  265.580
  Cycle:     88 Energy:     -1695.860329  Gnorm:      0.011554  CPU:  266.820
  Cycle:     89 Energy:     -1695.985195  Gnorm:      0.010892  CPU:  267.816
  Cycle:     90 Energy:     -1696.090198  Gnorm:      0.010405  CPU:  268.812
  Cycle:     91 Energy:     -1696.183778  Gnorm:      0.009691  CPU:  269.804
  ** Hessian calculated **
  Cycle:     92 Energy:     -1696.255999  Gnorm:      0.007611  CPU:  274.256
  Cycle:     93 Energy:     -1696.322319  Gnorm:      0.007457  CPU:  275.484
  Cycle:     94 Energy:     -1696.386491  Gnorm:      0.008020  CPU:  276.716
  Cycle:     95 Energy:     -1696.473685  Gnorm:      0.009092  CPU:  277.948
  Cycle:     96 Energy:     -1696.567647  Gnorm:      0.009548  CPU:  279.172
  Cycle:     97 Energy:     -1696.668415  Gnorm:      0.010060  CPU:  280.396
  Cycle:     98 Energy:     -1696.783922  Gnorm:      0.010406  CPU:  281.616
  Cycle:     99 Energy:     -1696.899777  Gnorm:      0.010981  CPU:  282.596
  Cycle:    100 Energy:     -1697.012645  Gnorm:      0.010099  CPU:  283.816
  Cycle:    101 Energy:     -1697.114257  Gnorm:      0.009345  CPU:  284.792
  ** Hessian calculated **
  Cycle:    102 Energy:     -1697.184225  Gnorm:      0.006276  CPU:  289.224
  Cycle:    103 Energy:     -1697.234983  Gnorm:      0.006703  CPU:  290.440
  Cycle:    104 Energy:     -1697.303029  Gnorm:      0.008476  CPU:  291.652
  Cycle:    105 Energy:     -1697.389000  Gnorm:      0.009300  CPU:  292.868
  Cycle:    106 Energy:     -1697.480329  Gnorm:      0.008053  CPU:  293.848
  Cycle:    107 Energy:     -1697.557690  Gnorm:      0.007837  CPU:  294.824
  Cycle:    108 Energy:     -1697.625184  Gnorm:      0.007763  CPU:  295.800
  Cycle:    109 Energy:     -1697.679206  Gnorm:      0.006525  CPU:  296.780
  Cycle:    110 Energy:     -1697.732575  Gnorm:      0.006872  CPU:  297.996
  Cycle:    111 Energy:     -1697.788638  Gnorm:      0.006709  CPU:  299.212
  ** Hessian calculated **
  Cycle:    112 Energy:     -1697.820635  Gnorm:      0.005112  CPU:  303.636
  Cycle:    113 Energy:     -1697.853653  Gnorm:      0.005014  CPU:  304.868
  Cycle:    114 Energy:     -1697.891464  Gnorm:      0.005322  CPU:  306.088
  Cycle:    115 Energy:     -1697.928106  Gnorm:      0.005242  CPU:  307.308
  Cycle:    116 Energy:     -1697.960682  Gnorm:      0.004463  CPU:  308.292
  Cycle:    117 Energy:     -1697.991049  Gnorm:      0.004986  CPU:  309.512
  Cycle:    118 Energy:     -1698.020495  Gnorm:      0.004807  CPU:  310.740
  Cycle:    119 Energy:     -1698.045731  Gnorm:      0.005037  CPU:  311.720
  Cycle:    120 Energy:     -1698.071550  Gnorm:      0.004663  CPU:  312.704
  Cycle:    121 Energy:     -1698.095483  Gnorm:      0.004342  CPU:  313.924
  ** Hessian calculated **
  Cycle:    122 Energy:     -1698.146423  Gnorm:      0.004272  CPU:  319.072
  ** Hessian calculated **
  Cycle:    123 Energy:     -1698.158523  Gnorm:      0.002534  CPU:  323.504
  Cycle:    124 Energy:     -1698.168392  Gnorm:      0.002621  CPU:  324.732
  Cycle:    125 Energy:     -1698.175974  Gnorm:      0.001973  CPU:  325.948
  Cycle:    126 Energy:     -1698.186936  Gnorm:      0.002439  CPU:  327.172
  Cycle:    127 Energy:     -1698.195602  Gnorm:      0.003601  CPU:  328.388
  Cycle:    128 Energy:     -1698.210189  Gnorm:      0.003217  CPU:  329.604
  Cycle:    129 Energy:     -1698.225254  Gnorm:      0.003832  CPU:  330.820
  Cycle:    130 Energy:     -1698.243024  Gnorm:      0.003835  CPU:  332.036
  Cycle:    131 Energy:     -1698.261616  Gnorm:      0.003548  CPU:  333.016
  Cycle:    132 Energy:     -1698.275914  Gnorm:      0.003613  CPU:  333.992
  ** Hessian calculated **
  Cycle:    133 Energy:     -1698.284461  Gnorm:      0.002757  CPU:  338.420
  Cycle:    134 Energy:     -1698.293654  Gnorm:      0.002528  CPU:  339.636
  Cycle:    135 Energy:     -1698.303144  Gnorm:      0.002581  CPU:  340.852
  Cycle:    136 Energy:     -1698.315581  Gnorm:      0.003565  CPU:  342.072
  Cycle:    137 Energy:     -1698.331772  Gnorm:      0.003657  CPU:  343.288
  Cycle:    138 Energy:     -1698.348499  Gnorm:      0.003533  CPU:  344.504
  Cycle:    139 Energy:     -1698.365332  Gnorm:      0.004181  CPU:  345.484
  Cycle:    140 Energy:     -1698.379108  Gnorm:      0.003321  CPU:  346.460
  Cycle:    141 Energy:     -1698.393858  Gnorm:      0.003298  CPU:  347.676
  Cycle:    142 Energy:     -1698.405590  Gnorm:      0.003340  CPU:  348.656
  ** Hessian calculated **
  Cycle:    143 Energy:     -1698.412546  Gnorm:      0.002514  CPU:  353.076
  Cycle:    144 Energy:     -1698.420697  Gnorm:      0.002303  CPU:  354.296
  Cycle:    145 Energy:     -1698.426111  Gnorm:      0.002038  CPU:  355.280
  Cycle:    146 Energy:     -1698.433134  Gnorm:      0.002791  CPU:  356.732
  Cycle:    147 Energy:     -1698.438994  Gnorm:      0.005862  CPU:  357.732
  Cycle:    148 Energy:     -1698.446594  Gnorm:      0.004092  CPU:  358.708
  Cycle:    149 Energy:     -1698.453653  Gnorm:      0.003717  CPU:  360.408
  Cycle:    150 Energy:     -1698.459716  Gnorm:      0.005401  CPU:  361.636
  Cycle:    151 Energy:     -1698.466022  Gnorm:      0.003907  CPU:  362.856
  Cycle:    152 Energy:     -1698.472017  Gnorm:      0.006089  CPU:  364.076
  ** Hessian calculated **
  Cycle:    153 Energy:     -1698.476605  Gnorm:      0.003487  CPU:  368.500
  Cycle:    154 Energy:     -1698.481149  Gnorm:      0.001382  CPU:  369.724
  Cycle:    155 Energy:     -1698.486725  Gnorm:      0.004288  CPU:  370.944
  Cycle:    156 Energy:     -1698.489225  Gnorm:      0.007228  CPU:  371.924
  Cycle:    157 Energy:     -1698.493516  Gnorm:      0.002760  CPU:  373.380
  Cycle:    158 Energy:     -1698.498355  Gnorm:      0.002082  CPU:  374.836
  Cycle:    159 Energy:     -1698.502096  Gnorm:      0.002788  CPU:  376.052
  Cycle:    160 Energy:     -1698.511885  Gnorm:      0.002495  CPU:  377.504
  Cycle:    161 Energy:     -1698.523197  Gnorm:      0.004369  CPU:  378.720
  Cycle:    162 Energy:     -1698.537323  Gnorm:      0.004741  CPU:  379.708
  ** Hessian calculated **
  Cycle:    163 Energy:     -1698.546160  Gnorm:      0.005951  CPU:  384.132
  Cycle:    164 Energy:     -1698.559157  Gnorm:      0.006322  CPU:  385.348
  Cycle:    165 Energy:     -1698.566054  Gnorm:      0.005435  CPU:  386.336
  Cycle:    166 Energy:     -1698.575719  Gnorm:      0.005422  CPU:  387.316
  Cycle:    167 Energy:     -1698.586519  Gnorm:      0.007310  CPU:  388.532
  Cycle:    168 Energy:     -1698.603274  Gnorm:      0.006545  CPU:  389.744
  Cycle:    169 Energy:     -1698.632073  Gnorm:      0.006124  CPU:  390.960
  Cycle:    170 Energy:     -1698.665312  Gnorm:      0.006300  CPU:  391.936
  Cycle:    171 Energy:     -1698.704205  Gnorm:      0.008267  CPU:  393.152
  Cycle:    172 Energy:     -1698.742519  Gnorm:      0.006994  CPU:  394.844
  ** Hessian calculated **
  Cycle:    173 Energy:     -1698.779254  Gnorm:      0.010697  CPU:  399.516
  Cycle:    174 Energy:     -1698.811084  Gnorm:      0.014586  CPU:  400.736
  Cycle:    175 Energy:     -1698.840542  Gnorm:      0.012309  CPU:  401.952
  Cycle:    176 Energy:     -1698.887005  Gnorm:      0.012158  CPU:  403.168
  Cycle:    177 Energy:     -1698.928380  Gnorm:      0.008119  CPU:  404.148
  Cycle:    178 Energy:     -1698.952600  Gnorm:      0.005868  CPU:  405.364
  Cycle:    179 Energy:     -1698.975909  Gnorm:      0.003193  CPU:  406.576
  Cycle:    180 Energy:     -1699.004324  Gnorm:      0.004608  CPU:  408.032
  Cycle:    181 Energy:     -1699.024325  Gnorm:      0.010304  CPU:  409.016
  Cycle:    182 Energy:     -1699.059016  Gnorm:      0.005349  CPU:  410.000
  ** Hessian calculated **
  Cycle:    183 Energy:     -1699.074118  Gnorm:      0.006655  CPU:  414.448
  Cycle:    184 Energy:     -1699.087164  Gnorm:      0.006946  CPU:  415.672
  Cycle:    185 Energy:     -1699.095277  Gnorm:      0.003343  CPU:  416.656
  Cycle:    186 Energy:     -1699.107242  Gnorm:      0.005579  CPU:  418.112
  Cycle:    187 Energy:     -1699.116285  Gnorm:      0.009027  CPU:  419.332
  Cycle:    188 Energy:     -1699.131674  Gnorm:      0.004238  CPU:  420.552
  Cycle:    189 Energy:     -1699.146768  Gnorm:      0.003137  CPU:  421.536
  Cycle:    190 Energy:     -1699.158283  Gnorm:      0.003887  CPU:  422.520
  Cycle:    191 Energy:     -1699.170281  Gnorm:      0.002368  CPU:  423.736
  Cycle:    192 Energy:     -1699.182647  Gnorm:      0.002709  CPU:  425.436
  ** Hessian calculated **
  Cycle:    193 Energy:     -1699.187129  Gnorm:      0.001823  CPU:  429.864
  Cycle:    194 Energy:     -1699.194921  Gnorm:      0.001993  CPU:  431.088
  Cycle:    195 Energy:     -1699.199497  Gnorm:      0.001957  CPU:  432.064
  Cycle:    196 Energy:     -1699.205779  Gnorm:      0.002176  CPU:  433.520
  Cycle:    197 Energy:     -1699.210123  Gnorm:      0.001869  CPU:  434.500
  Cycle:    198 Energy:     -1699.214103  Gnorm:      0.001561  CPU:  435.476
  Cycle:    199 Energy:     -1699.220367  Gnorm:      0.001755  CPU:  436.692
  Cycle:    200 Energy:     -1699.224288  Gnorm:      0.002824  CPU:  437.672
  Cycle:    201 Energy:     -1699.230052  Gnorm:      0.004474  CPU:  438.892
  Cycle:    202 Energy:     -1699.236362  Gnorm:      0.005195  CPU:  440.112
  ** Hessian calculated **
  Cycle:    203 Energy:     -1699.240231  Gnorm:      0.003045  CPU:  444.528
  Cycle:    204 Energy:     -1699.245780  Gnorm:      0.005187  CPU:  445.980
  Cycle:    205 Energy:     -1699.248955  Gnorm:      0.004717  CPU:  446.960
  Cycle:    206 Energy:     -1699.253016  Gnorm:      0.001623  CPU:  448.180
  Cycle:    207 Energy:     -1699.260800  Gnorm:      0.003582  CPU:  449.636
  Cycle:    208 Energy:     -1699.268623  Gnorm:      0.004606  CPU:  451.092
  Cycle:    209 Energy:     -1699.278269  Gnorm:      0.003815  CPU:  452.316
  Cycle:    210 Energy:     -1699.296926  Gnorm:      0.003839  CPU:  453.536
  Cycle:    211 Energy:     -1699.317782  Gnorm:      0.004833  CPU:  454.516
  Cycle:    212 Energy:     -1699.341045  Gnorm:      0.005045  CPU:  455.736
  ** Hessian calculated **
  Cycle:    213 Energy:     -1699.355332  Gnorm:      0.006391  CPU:  460.172
  Cycle:    214 Energy:     -1699.378702  Gnorm:      0.008330  CPU:  461.404
  Cycle:    215 Energy:     -1699.395376  Gnorm:      0.008020  CPU:  462.384
  Cycle:    216 Energy:     -1699.415798  Gnorm:      0.009274  CPU:  463.604
  Cycle:    217 Energy:     -1699.446639  Gnorm:      0.009788  CPU:  464.824
  Cycle:    218 Energy:     -1699.479536  Gnorm:      0.011990  CPU:  466.044
  Cycle:    219 Energy:     -1699.520340  Gnorm:      0.006908  CPU:  467.024
  Cycle:    220 Energy:     -1699.553070  Gnorm:      0.006253  CPU:  468.004
  Cycle:    221 Energy:     -1699.590061  Gnorm:      0.008351  CPU:  468.980
  Cycle:    222 Energy:     -1699.624529  Gnorm:      0.006186  CPU:  470.192
  ** Hessian calculated **
  Cycle:    223 Energy:     -1699.674888  Gnorm:      0.007886  CPU:  474.836
  ** Hessian calculated **
  Cycle:    224 Energy:     -1699.793676  Gnorm:      0.012354  CPU:  479.748
  Cycle:    225 Energy:     -1699.832596  Gnorm:      0.013678  CPU:  480.736
  Cycle:    226 Energy:     -1699.853270  Gnorm:      0.011766  CPU:  481.960
  Cycle:    227 Energy:     -1699.864666  Gnorm:      0.010857  CPU:  482.944
  ** Hessian calculated **
  Cycle:    228 Energy:     -1699.942260  Gnorm:      0.005693  CPU:  487.400
  Cycle:    229 Energy:     -1699.976077  Gnorm:      0.005127  CPU:  488.632
  Cycle:    230 Energy:     -1700.004664  Gnorm:      0.006581  CPU:  489.860
  Cycle:    231 Energy:     -1700.036721  Gnorm:      0.007351  CPU:  491.084
  Cycle:    232 Energy:     -1700.081577  Gnorm:      0.008270  CPU:  492.312
  Cycle:    233 Energy:     -1700.131881  Gnorm:      0.009453  CPU:  493.540
  Cycle:    234 Energy:     -1700.172318  Gnorm:      0.010354  CPU:  494.528
  Cycle:    235 Energy:     -1700.204248  Gnorm:      0.004556  CPU:  495.512
  Cycle:    236 Energy:     -1700.232784  Gnorm:      0.004785  CPU:  496.740
  Cycle:    237 Energy:     -1700.259479  Gnorm:      0.005427  CPU:  497.740
  ** Hessian calculated **
  Cycle:    238 Energy:     -1700.278946  Gnorm:      0.004602  CPU:  502.176
  Cycle:    239 Energy:     -1700.302950  Gnorm:      0.006486  CPU:  503.412
  Cycle:    240 Energy:     -1700.340546  Gnorm:      0.015444  CPU:  504.644
  Cycle:    241 Energy:     -1700.400368  Gnorm:      0.015000  CPU:  505.876
  Cycle:    242 Energy:     -1700.466264  Gnorm:      0.015892  CPU:  506.864
  Cycle:    243 Energy:     -1700.532004  Gnorm:      0.008974  CPU:  507.848
  Cycle:    244 Energy:     -1700.604801  Gnorm:      0.017906  CPU:  509.084
  Cycle:    245 Energy:     -1700.661471  Gnorm:      0.007721  CPU:  510.084
  Cycle:    246 Energy:     -1700.692683  Gnorm:      0.011544  CPU:  511.080
  Cycle:    247 Energy:     -1700.733195  Gnorm:      0.005944  CPU:  512.316
  ** Hessian calculated **
  Cycle:    248 Energy:     -1700.758760  Gnorm:      0.004426  CPU:  516.756
  Cycle:    249 Energy:     -1700.785082  Gnorm:      0.004883  CPU:  517.988
  Cycle:    250 Energy:     -1700.814244  Gnorm:      0.005700  CPU:  519.228
  Cycle:    251 Energy:     -1700.852327  Gnorm:      0.007188  CPU:  520.468
  Cycle:    252 Energy:     -1700.879818  Gnorm:      0.006371  CPU:  521.464
  Cycle:    253 Energy:     -1700.904562  Gnorm:      0.005827  CPU:  522.460
  Cycle:    254 Energy:     -1700.922882  Gnorm:      0.004875  CPU:  523.456
  Cycle:    255 Energy:     -1700.935334  Gnorm:      0.004413  CPU:  524.692
  Cycle:    256 Energy:     -1700.947103  Gnorm:      0.006155  CPU:  525.692
  Cycle:    257 Energy:     -1700.957800  Gnorm:      0.005928  CPU:  526.932
  ** Hessian calculated **
  Cycle:    258 Energy:     -1700.963100  Gnorm:      0.003397  CPU:  531.380
  Cycle:    259 Energy:     -1700.967996  Gnorm:      0.004827  CPU:  532.624
  Cycle:    260 Energy:     -1700.974385  Gnorm:      0.007590  CPU:  533.876
  Cycle:    261 Energy:     -1700.982089  Gnorm:      0.005278  CPU:  535.120
  Cycle:    262 Energy:     -1700.991628  Gnorm:      0.003600  CPU:  536.360
  Cycle:    263 Energy:     -1701.000784  Gnorm:      0.003798  CPU:  537.364
  Cycle:    264 Energy:     -1701.010517  Gnorm:      0.004647  CPU:  538.608
  Cycle:    265 Energy:     -1701.018304  Gnorm:      0.006245  CPU:  539.856
  Cycle:    266 Energy:     -1701.023103  Gnorm:      0.004316  CPU:  541.104
  Cycle:    267 Energy:     -1701.026545  Gnorm:      0.005113  CPU:  542.348
  ** Hessian calculated **
  Cycle:    268 Energy:     -1701.047501  Gnorm:      0.004647  CPU:  547.520
  ** Hessian calculated **
  Cycle:    269 Energy:     -1701.051000  Gnorm:      0.003150  CPU:  551.984
  Cycle:    270 Energy:     -1701.052730  Gnorm:      0.004235  CPU:  553.232
  Cycle:    271 Energy:     -1701.054523  Gnorm:      0.003626  CPU:  554.236
  Cycle:    272 Energy:     -1701.056048  Gnorm:      0.001630  CPU:  555.484
  Cycle:    273 Energy:     -1701.056808  Gnorm:      0.001020  CPU:  556.484
  Cycle:    274 Energy:     -1701.056886  Gnorm:      0.001006  CPU:  558.460
  Cycle:    275 Energy:     -1701.056886  Gnorm:      0.001006  CPU:  559.460
  ** Hessian calculated **
  Cycle:    276 Energy:     -1701.057430  Gnorm:      0.000943  CPU:  564.388
  Cycle:    277 Energy:     -1701.057955  Gnorm:      0.000775  CPU:  565.632
  Cycle:    278 Energy:     -1701.058112  Gnorm:      0.000663  CPU:  567.120
  Cycle:    279 Energy:     -1701.058113  Gnorm:      0.000663  CPU:  568.364
  Cycle:    280 Energy:     -1701.058113  Gnorm:      0.000663  CPU:  569.372
  ** Hessian calculated **
  Cycle:    281 Energy:     -1701.058113  Gnorm:      0.000663  CPU:  574.300
  ** Hessian calculated **

  XYZ File written as gulp.xyz                                



  **** Optimisation achieved ****


  Final energy =   -1701.05811331 eV
  Final Gnorm  =       0.00066327

  Components of energy : 

--------------------------------------------------------------------------------
  Interatomic potentials     =         -68.63675159 eV
  Three-body potentials      =           0.00000000 eV
  Four-body potentials       =           0.00000000 eV
  Out of plane potentials    =           0.00000000 eV
  Bond-order potentials      =       -1619.77732608 eV
  Monopole - monopole (real) =          -4.17392849 eV
  Monopole - monopole (recip)=           0.00000000 eV
  Monopole - monopole (total)=          -4.17392849 eV
  Wolf sum self energy       =          -8.47010716 eV
--------------------------------------------------------------------------------
  Total lattice energy       =       -1701.05811331 eV
--------------------------------------------------------------------------------
  Total lattice energy       =         -164126.1049 kJ/(mole unit cells)
--------------------------------------------------------------------------------

  Final fractional coordinates of atoms :

--------------------------------------------------------------------------------
   No.  Atomic        x           y          z          Radius
        Label       (Frac)      (Frac)     (Frac)       (Angs) 
--------------------------------------------------------------------------------
     1  C1    c     0.215559    0.184381    0.392082    0.000000
     2  C1    c     0.171401    0.132453    0.330152    0.000000
     3  C1    c     0.098178    0.067855    0.336828    0.000000
     4  C1    c     0.071084    0.056944    0.405246    0.000000
     5  C1    c     0.116444    0.110331    0.468900    0.000000
     6  C1    c     0.187667    0.173178    0.462412    0.000000
     7  C1    c     0.181334    0.254745    0.494568    0.000000
     8  C1    c     0.205274    0.316370    0.444119    0.000000
     9  C1    c     0.226412    0.272895    0.380775    0.000000
    10  C1    c     0.192872    0.307047    0.307855    0.000000
    11  C1    c     0.147514    0.253659    0.244201    0.000000
    12  C1    c     0.136920    0.167569    0.255194    0.000000
    13  C1    c     0.042417    0.124662    0.215548    0.000000
    14  C1    c     0.018473    0.063035    0.266000    0.000000
    15  C1    c     0.913849    0.047430    0.265516    0.000000
[...]
   985     1390.7132                  0.00000001464203
   986     1390.7720                  0.00000001020296
   987     1390.7728                  0.00000001076233
   988     1390.7732                  0.00000000402371
   989     1390.7745                  0.00000000864156
   990     1390.7918                  0.00000000935404
   991     1390.7937                  0.00000000709663
   992     1390.7953                  0.00000001149177
   993     1390.7980                  0.00000001908082
   994     1390.8015                  0.00000002366855
   995     1390.8019                  0.00000002424244
   996     1390.8026                  0.00000001787069
   997     1390.9987                  0.00000002589397
   998     1391.0413                  0.00000003150593
   999     1391.0442                  0.00000003433558
  1000     1391.0472                  0.00000003321168
  1001     1549.7553                  0.00000000048381
  1002     1549.8332                  0.00000000037602
  1003     1549.8341                  0.00000000039541
  1004     1549.8359                  0.00000000037761
  1005     1549.9700                  0.00000000065133
  1006     1550.0226                  0.00000000020897
  1007     1550.0243                  0.00000000020587
  1008     1550.0244                  0.00000000020028
  1009     1550.0504                  0.00000000047290
  1010     1550.0507                  0.00000000047666
  1011     1550.0538                  0.00000000047356
  1012     1550.0655                  0.00000000027038
  1013     1550.2296                  0.00000000076005
  1014     1550.2451                  0.00000000059762
  1015     1550.2456                  0.00000000062871
  1016     1550.2456                  0.00000000059925
  1017     1578.5058                  0.00000000095488
  1018     1578.5098                  0.00000000110895
  1019     1578.5109                  0.00000000106911
  1020     1578.5113                  0.00000000107989
  1021     1578.6604                  0.00000000021625
  1022     1578.6830                  0.00000000023274
  1023     1578.6850                  0.00000000024546
  1024     1578.6857                  0.00000000023412
  1025     1578.7451                  0.00000000026502
  1026     1578.7905                  0.00000000036492
  1027     1578.7927                  0.00000000034715
  1028     1578.7942                  0.00000000037790
  1029     1578.8471                  0.00000000078803
  1030     1578.8935                  0.00000000084301
  1031     1578.8962                  0.00000000084532
  1032     1578.8962                  0.00000000083335
  1033     1594.8089                  0.00002451447316
  1034     1594.8527                  0.00002458891910
  1035     1594.8529                  0.00002458915483
  1036     1594.8555                  0.00002458865386
  1037     1597.3288                  0.00000821254151
  1038     1597.4256                  0.00000819221437
  1039     1597.4258                  0.00000819243592
  1040     1597.4311                  0.00000819042602
  1041     1597.4567                  0.00000813555533
  1042     1597.4662                  0.00000818099911
  1043     1597.4662                  0.00000818012108
  1044     1597.4670                  0.00000818094053
  1045     1597.5203                  0.00000810502889
  1046     1597.5264                  0.00000813743707
  1047     1597.5268                  0.00000813707936
  1048     1597.5283                  0.00000813825030
  1049     1612.9683                  0.00000000064024
  1050     1613.0469                  0.00000000014801
  1051     1613.0475                  0.00000000015848
  1052     1613.0500                  0.00000000014637
  1053     1613.0881                  0.00000000007921
  1054     1613.1118                  0.00000000010879
  1055     1613.1228                  0.00000000002076
  1056     1613.1236                  0.00000000001558
  1057     1613.1255                  0.00000000001818
  1058     1613.1551                  0.00000000002400
  1059     1613.1561                  0.00000000002717
  1060     1613.1569                  0.00000000022409
  1061     1613.1580                  0.00000000003175
  1062     1613.1603                  0.00000000004721
  1063     1613.1614                  0.00000000005171
  1064     1613.1655                  0.00000000004023
  1065     1613.2335                  0.00000000031636
  1066     1613.2495                  0.00000000010112
  1067     1613.2499                  0.00000000009525
  1068     1613.2508                  0.00000000009188
  1069     1642.7809                  0.00000000003581
  1070     1642.7950                  0.00000000005728
  1071     1642.7958                  0.00000000005395
  1072     1642.7969                  0.00000000004828
  1073     1642.8142                  0.00000000000603
  1074     1642.8643                  0.00000000000486
  1075     1642.8646                  0.00000000004119
  1076     1642.8649                  0.00000000000436
  1077     1642.8694                  0.00000000000393
  1078     1642.9000                  0.00000000004908
  1079     1642.9008                  0.00000000005498
  1080     1642.9041                  0.00000000005781
  1081     1755.7292                  0.00000000000000
  1082     1755.7509                  0.00000000000000
  1083     1755.7509                  0.00000000000000
  1084     1755.7537                  0.00000000000000
  1085     1800.2606                  0.00000000040768
  1086     1800.3360                  0.00000000022844
  1087     1800.3364                  0.00000000020787
  1088     1800.3416                  0.00000000019227
  1089     1800.3744                  0.00000000011163
  1090     1800.3846                  0.00000000005169
  1091     1800.3849                  0.00000000005630
  1092     1800.3850                  0.00000000005172
  1093     1800.5017                  0.00000000023155
  1094     1800.5018                  0.00000000022202
  1095     1800.5020                  0.00000000025612
  1096     1800.5125                  0.00000000041199
  1097     1826.3073                  0.00001134501723
  1098     1826.3450                  0.00001141489577
  1099     1826.3465                  0.00001141640830
  1100     1826.3472                  0.00001141067394
  1101     1826.4089                  0.00001154091432
  1102     1826.4883                  0.00001156966206
  1103     1826.4885                  0.00001157208522
  1104     1826.4935                  0.00001160962910
  1105     1826.4963                  0.00001159983995
  1106     1826.4974                  0.00001159436065
  1107     1826.4975                  0.00001159718942
  1108     1826.5124                  0.00001158685667
  1109     1828.7280                  0.00000668207905
  1110     1828.7485                  0.00000670930238
  1111     1828.7509                  0.00000670490006
  1112     1828.7509                  0.00000670300636
  1113     1828.8196                  0.00000690522772
  1114     1828.8355                  0.00000693091839
  1115     1828.8362                  0.00000693214307
  1116     1828.8379                  0.00000692154898
  1117     1828.9301                  0.00000687446510
  1118     1828.9835                  0.00000694713673
  1119     1828.9839                  0.00000694500689
  1120     1828.9872                  0.00000694132978
  1121     1829.0106                  0.00000689616223
  1122     1829.0198                  0.00000692722332
  1123     1829.0208                  0.00000693007935
  1124     1829.0233                  0.00000692515652
  1125     1829.1527                  0.00000711315158
  1126     1829.1835                  0.00000712168696
  1127     1829.1836                  0.00000711086263
  1128     1829.1841                  0.00000711039031
  1129     1896.8405                  0.00000000040101
  1130     1896.8723                  0.00000000066997
  1131     1896.8737                  0.00000000068309
  1132     1896.8755                  0.00000000058489
  1133     1896.9029                  0.00000000021559
  1134     1896.9674                  0.00000000024037
  1135     1896.9729                  0.00000000013896
  1136     1896.9734                  0.00000000015489
  1137     1896.9739                  0.00000000015572
  1138     1896.9857                  0.00000000022949
  1139     1896.9877                  0.00000000025013
  1140     1896.9879                  0.00000000027518
  1141     1897.0015                  0.00000000015941
  1142     1897.0215                  0.00000000032240
  1143     1897.0218                  0.00000000031033
  1144     1897.0219                  0.00000000027939
  1145     1912.1075                  0.00000000045650
  1146     1912.1526                  0.00000000038913
  1147     1912.1527                  0.00000000038637
  1148     1912.1548                  0.00000000039699
  1149     1912.2127                  0.00000000013806
  1150     1912.2271                  0.00000000010936
  1151     1912.2275                  0.00000000010967
  1152     1912.2291                  0.00000000011004
  1153     1912.2606                  0.00000000034909
  1154     1912.2856                  0.00000000014360
  1155     1912.2969                  0.00000000020998
  1156     1912.2979                  0.00000000020709
  1157     1912.2987                  0.00000000022536
  1158     1912.3209                  0.00000000022060
  1159     1912.3219                  0.00000000024995
  1160     1912.3246                  0.00000000025879
  1161     1916.3107                  0.00000000291600
  1162     1916.3997                  0.00000000079823
  1163     1916.4165                  0.00000000078963
  1164     1916.4188                  0.00000000069986
  1165     1916.4188                  0.00000000072016
  1166     1916.4460                  0.00000000085868
  1167     1916.4751                  0.00000000021843
  1168     1916.4755                  0.00000000025031
  1169     1916.4766                  0.00000000021576
  1170     1916.4868                  0.00000000018169
  1171     1916.4874                  0.00000000024509
  1172     1916.4902                  0.00000000024119
  1173     1916.4970                  0.00000000042454
  1174     1916.4980                  0.00000000039435
  1175     1916.4993                  0.00000000048906
  1176     1916.5407                  0.00000000185329
  1177     1916.5495                  0.00000000046379
  1178     1916.5503                  0.00000000047943
  1179     1916.5517                  0.00000000051720
  1180     1916.5573                  0.00000000213605
  1181     1924.2449                  0.00000000200107
  1182     1924.3092                  0.00000000026359
  1183     1924.3177                  0.00000000060610
  1184     1924.3188                  0.00000000051149
  1185     1924.3212                  0.00000000045372
  1186     1924.3230                  0.00000000100114
  1187     1924.3356                  0.00000000036031
  1188     1924.3365                  0.00000000038504
  1189     1924.3393                  0.00000000032740
  1190     1924.3583                  0.00000000013202
  1191     1924.3597                  0.00000000016648
  1192     1924.3627                  0.00000000014578
  1193     1924.3666                  0.00000000078641
  1194     1924.3987                  0.00000000060998
  1195     1924.4000                  0.00000000059347
  1196     1924.4015                  0.00000000070374
  1197     1924.4076                  0.00000000027872
  1198     1924.4085                  0.00000000026606
  1199     1924.4091                  0.00000000027562
  1200     1924.4112                  0.00000000158922
--------------------------------------------------------------------------------
  Thermal conductivity =     0.245987 W/(m.K) 
--------------------------------------------------------------------------------

--------------------------------------------------------------------------------
  Phonon properties (per mole of unit cells): Temperature =  50000.000 K
--------------------------------------------------------------------------------
  Zero point energy            =       59.906704 eV
  Entropy                      =        0.508834 eV/K
                               =    49094.691742 J/(mol.K)
  Helmholtz free-energy        =   -22079.731382 eV
                               = -2130356.372429 kJmol-1
  Free energy (equipartition)  =   -22079.900524 eV
  - T*S       (equipartition)  =   -25441.527379 eV
  Uvib        (equipartition)  =     5062.684968 eV
  Mean kinetic energy          =     2585.369971 eV
  Heat capacity - const volume =        0.101247 eV/K
                               =     9768.780593 J/(mol.K)
--------------------------------------------------------------------------------

  Phonon density of states : 

--------------------------------------------------------------------------------
 Frequency (cm-1) Density of States                                             
--------------------------------------------------------------------------------
    0.00000 |************                                                  0.013
   30.06893 |*****                                                         0.006
   60.13785 |*************                                                 0.013
   90.20678 |******************                                            0.019
  120.27570 |***********************                                       0.024
  150.34463 |*************************                                     0.025
  180.41355 |*************************                                     0.025
  210.48248 |*************************                                     0.025
  240.55140 |*********************                                         0.022
  270.62033 |***********************************                           0.036
  300.68926 |**************                                                0.014
  330.75818 |********************                                          0.020
  360.82711 |***********************                                       0.024
  390.89603 |********                                                      0.008
  420.96496 |*******************************************                   0.044
  451.03388 |***********************                                       0.024
  481.10281 |********                                                      0.008
  511.17173 |***********************************                           0.036
  541.24066 |*******                                                       0.008
  571.30959 |*********                                                     0.009
  601.37851 |**********************                                        0.023
  631.44744 |***********************************                           0.036
  661.51636 |********                                                      0.008
  691.58529 |*********************************                             0.034
  721.65421 |******************************                                0.031
  751.72314 |***********************                                       0.024
  781.79206 |****************************                                  0.029
  811.86099 |************                                                  0.013
  841.92991 |*****************                                             0.018
  871.99884 |******************                                            0.019
  902.06777 |*******************                                           0.019
  932.13669 |**********************                                        0.023
  962.20562 |*************                                                 0.013
  992.27454 |**                                                            0.003
 1022.34347 |*****                                                         0.006
 1052.41239 |***********                                                   0.012
 1082.48132 |***************                                               0.015
 1112.55024 |***************************                                   0.028
 1142.61917 |************                                                  0.013
 1172.68810 |*                                                             0.002
 1202.75702 |***************                                               0.016
 1232.82595 |                                                              0.001
 1262.89487 |                                                              0.000
 1292.96380 |**********                                                    0.011
 1323.03272 |                                                              0.000
 1353.10165 |                                                              0.000
 1383.17057 |*********************************                             0.034
 1413.23950 |                                                              0.000
 1443.30843 |                                                              0.000
 1473.37735 |                                                              0.000
 1503.44628 |                                                              0.000
 1533.51520 |*************                                                 0.013
 1563.58413 |*************                                                 0.013
 1593.65305 |******************************                                0.030
 1623.72198 |**********                                                    0.010
 1653.79090 |                                                              0.000
 1683.85983 |                                                              0.000
 1713.92876 |                                                              0.000
 1743.99768 |***                                                           0.003
 1774.06661 |**********                                                    0.010
 1804.13553 |**************************                                    0.027
 1834.20446 |                                                              0.000
 1864.27338 |                                                              0.000
 1894.34231 |************************************************************  0.061
--------------------------------------------------------------------------------



  Time to end of optimisation =     626.7200 seconds


  Peak dynamic memory used =      30.73 MB 


  Timing analysis for GULP :

--------------------------------------------------------------------------------
  Task / Subroutine                                          Time (Seconds)
--------------------------------------------------------------------------------
  Calculation of real space energy and derivatives              247.0880
  Calculation of three-body energy and derivatives               17.3400
  Calculation of four-body energy and derivatives                39.0080
  Calculation of Bond Order energy and derivatives               63.1040
  Calculation of phonons                                         43.6120
  Calculation of scattering                                       0.0000
  Calculation of matrix inversion                               205.1240
  Disk read/write operations to scratch files                     0.0040
  Global summation overhead                                       0.0040
--------------------------------------------------------------------------------
  Total CPU time                                                626.7200
--------------------------------------------------------------------------------


  LAMMPS file written on channel 26



  **** GULP has completed with  12 warnings - beware! ****

  Job Finished at 19:53.45  7th July       2013                               

