  LAMMPS description
 
     400   atoms
       0   bonds
       0   angles
       4   dihedrals
 
      11   atom types
      13   bond types
      24   angle types
      25   dihedral types
 
       0   13.757000     xlo xhi
       0   16.634000     ylo yhi
       0   18.401740     zlo zhi
  0.0000000     -5.0306945      0.0000000     xy xz yz

  Masses

       1   12.010000
       2   12.010000
       3   12.010000
       4   12.010000
       5   15.999400
       6   15.999400
       7   12.010000
       8   12.010000
       9   12.010000
      10   1.0079400
      11   1.0079400

   Atoms

       1       0       1    0.000000    0.993000    3.067000    7.215000
       2       0       1    0.000000    0.701697    1.954002    5.684314
       3       0       1    0.000000   -0.918695    1.331860    6.104428
       4       0       1    0.000000   -1.686556    0.232198    7.468658
       5       0       1    0.000000   -1.207972    1.711748    8.592651
       6       0       1    0.000000    0.079094    2.894986    8.613257
       7       0       1    0.000000   -0.280390    4.486536    9.233860
       8       0       1    0.000000    0.778873    5.522027    7.972674
       9       0       1    0.000000    1.950587    4.908854    6.471412
      10       0       1    0.000000   -1.329685    4.974522    6.023689
      11       0       1    0.000000    1.524529    4.554378    3.730265
      12       0       1    0.000000    0.483473    2.876646    4.099384
      13       0       1    0.000000   12.671901    2.065714    3.427868
      14       0       1    0.000000   12.088061    0.620877    4.519474
      15       0       1    0.000000   10.570871   16.156970    4.467914
      16       0       1    0.000000    9.806662    0.400093    6.131839
      17       0       1    0.000000   10.490270    1.770622    7.513427
      18       0       1    0.000000   10.128187    0.040204    8.490654
      19       0       1    0.000000   10.935125    1.923399    9.563373
      20       0       1    0.000000   10.814233    3.447826   10.616787
      21       0       1    0.000000   -1.777075    4.720497   10.180085
      22       0       1    0.000000   -2.652780    6.302319    9.960203
      23       0       1    0.000000   -1.940455    7.731207    8.849092
      24       0       1    0.000000   -0.356375    7.074437    7.969966
      25       0       1    0.000000   -0.938645    8.119974    6.293932
      26       0       1    0.000000    0.648381    6.461992    5.146596
      27       0       1    0.000000   -0.600426    6.685589    3.485433
      28       0       1    0.000000   -0.318929    5.540940    2.550234
      29       0       1    0.000000   12.113653    4.450011    1.817792
      30       0       1    0.000000   12.328570    2.660944    1.236415
      31       0       1    0.000000   10.398389    2.486182    2.222675
      32       0       1    0.000000    9.626470    1.320808    3.482063
      33       0       1    0.000000    8.071209    1.744386    4.285160
      34       0       1    0.000000    7.995938    1.021424    6.032427
      35       0       1    0.000000    7.149133    2.361786    7.242357
      36       0       1    0.000000    8.634187    1.775452    8.716459
      37       0       1    0.000000    7.731817    3.207521    9.849572
      38       0       1    0.000000    9.258723    4.297514   10.312146
      39       0       1    0.000000    9.231334    6.064858   10.613143
      40       0       1    0.000000    8.572528    6.830337    8.961918
      41       0       1    0.000000    9.319870    8.191653    7.840751
      42       0       1    0.000000   11.070419    8.997276    7.473975
      43       0       1    0.000000   11.034279    6.881649    7.028980
      44       0       1    0.000000   11.014584    8.720933    4.906397
      45       0       1    0.000000   11.552134    7.651023    3.500446
      46       0       1    0.000000   10.368021    6.558912    2.534957
      47       0       1    0.000000   10.694514    5.372063    1.065865
      48       0       1    0.000000    9.462765    4.103638    2.029970
      49       0       1    0.000000    7.955539    4.406077    2.974298
      50       0       1    0.000000    7.109667    3.295798    4.251388
      51       0       1    0.000000    8.885940    4.442005    5.934743
      52       0       1    0.000000    5.416789    3.305670    6.661843
      53       0       1    0.000000    6.426693    4.472774    7.972080
      54       0       1    0.000000    7.155499    5.925559    8.144872
      55       0       1    0.000000    6.961697    6.593464    6.351890
      56       0       1    0.000000    5.989807    5.130460    5.234645
      57       0       1    0.000000    7.486360    5.906942    4.021671
      58       0       1    0.000000    8.848489    6.997367    3.496918
      59       0       1    0.000000    9.282519    8.136650    4.837463
      60       0       1    0.000000    8.304659    7.876637    6.349760
      61       0       1    0.000000    2.964684   11.544345    2.052267
      62       0       1    0.000000    3.371152   10.274005    3.526111
      63       0       1    0.000000    4.994045    9.649277    3.108895
      64       0       1    0.000000    5.759791    8.549111    1.745029
      65       0       1    0.000000    5.278992   10.030953    0.618119
      66       0       1    0.000000    3.961977   11.209373    0.632139
      67       0       1    0.000000   -0.675130   12.799278   18.382687
      68       0       1    0.000000    3.290902   13.838874    1.245988
      69       0       1    0.000000    1.916973   13.226594    2.768215
      70       0       1    0.000000    5.400643   13.291493    3.193851
      71       0       1    0.000000    2.549881   12.871295    5.478643
      72       0       1    0.000000    3.591853   11.193490    5.113596
      73       0       1    0.000000    5.160477   10.382723    5.785300
      74       0       1    0.000000    5.744313    8.937904    4.693652
      75       0       1    0.000000    7.261457    7.839804    4.745315
      76       0       1    0.000000    8.026111    8.717066    3.082071
      77       0       1    0.000000    7.338707   10.086075    1.705807
      78       0       1    0.000000    7.322292    8.370141    0.718521
      79       0       1    0.000000    1.867242   10.237984   18.052096
      80       0       1    0.000000    1.982681   11.768445   17.012197
      81       0       1    0.000000    0.821091   13.041565   17.437002
      82       0       1    0.000000    1.729722   14.617323   17.640564
      83       0       1    0.000000    6.025862   16.035625    0.367749
      84       0       1    0.000000    4.433631   15.391477    1.241002
      85       0       1    0.000000    4.967664   16.438602    2.917044
      86       0       1    0.000000    3.423202   14.786584    4.073435
      87       0       1    0.000000    4.675836   15.002587    5.727709
      88       0       1    0.000000    4.386117   13.839867    6.666305
      89       0       1    0.000000    5.718722   12.767046    7.395350
      90       0       1    0.000000    5.503531   10.977981    7.977089
      91       0       1    0.000000    7.433950   10.803228    6.990419
      92       0       1    0.000000    8.205928    9.637817    5.731039
      93       0       1    0.000000    9.761252   10.061427    4.927962
      94       0       1    0.000000    9.840801    9.347149    3.174148
      95       0       1    0.000000   10.819627   10.699638    1.980695
      96       0       1    0.000000    9.228453   10.176984    0.453362
      97       0       1    0.000000    5.188997   11.290120   17.548969
      98       0       1    0.000000    3.620910   12.595579   17.190660
      99       0       1    0.000000    3.598433   14.384476   16.971114
     100       0       1    0.000000    9.242918   15.143278    0.220959
     101       0       1    0.000000    8.514690   16.506563    1.368817
     102       0       1    0.000000    6.763647    0.679405    1.732487
     103       0       1    0.000000    6.761205   15.209200    2.215118
     104       0       1    0.000000    6.817774    0.403894    4.306702
     105       0       1    0.000000    6.280241   15.968068    5.712693
     106       0       1    0.000000    7.464374   14.875921    6.678141
     107       0       1    0.000000    7.137873   13.689126    8.147293
     108       0       1    0.000000    8.369671   12.420719    7.183269
     109       0       1    0.000000    9.876968   12.722561    6.238700
     110       0       1    0.000000   10.722392   11.613695    4.959208
     111       0       1    0.000000    8.888846   12.758470    3.292036
     112       0       1    0.000000   12.846268   12.125115    2.363734
     113       0       1    0.000000   11.141620   12.655158    1.670681
     114       0       1    0.000000   10.699776   14.284278    1.055770
     115       0       1    0.000000   10.872702   14.911501    2.865035
     116       0       1    0.000000   11.842457   13.441524    3.978351
     117       0       1    0.000000   10.344897   14.224586    5.189845
     118       0       1    0.000000    8.983922   15.314398    5.716169
     119       0       1    0.000000    8.549921   16.453538    4.375571
     120       0       1    0.000000    9.527693   16.193608    2.863261
     121       0       1    0.000000    7.324762   13.791073   11.254857
     122       0       1    0.000000    7.734047   15.061983   12.727322
     123       0       1    0.000000    9.357041   15.687228   12.310133
     124       0       1    0.000000   10.124701    0.152814   10.945440
     125       0       1    0.000000    9.640792   15.301267    9.823450
     126       0       1    0.000000    8.323227   14.124002    9.834506
     127       0       1    0.000000    8.718516   12.536585    9.182303
     128       0       1    0.000000    7.653697   11.497190   10.447570
     129       0       1    0.000000    6.278741   12.109562   11.969888
     130       0       1    0.000000    9.767886   12.044720   12.390955
     131       0       1    0.000000    6.913769   12.464639   14.684425
     132       0       1    0.000000    7.954696   14.142489   14.315237
     133       0       1    0.000000    9.523306   14.953308   14.986792
     134       0       1    0.000000   -3.649849   16.398155   13.895205
     135       0       1    0.000000   -2.132660    0.862057   13.946748
     136       0       1    0.000000   -1.368451   16.618933   12.282823
     137       0       1    0.000000   -2.052143   15.248426   10.901230
     138       0       1    0.000000   -1.649682    0.344493    9.924488
     139       0       1    0.000000   11.259583   15.095901    8.851955
     140       0       1    0.000000   11.380950   13.571248    7.797920
     141       0       1    0.000000   10.215021   12.298513    8.234763
     142       0       1    0.000000   11.090998   10.716723    8.454430
     143       0       1    0.000000   10.378815    9.287864    9.565589
     144       0       1    0.000000    8.794939    9.943995   10.444791
     145       0       1    0.000000    9.376894    8.898990   12.120747
     146       0       1    0.000000    7.789788   10.557406   13.268071
     147       0       1    0.000000    9.038639   10.333438   14.929229
     148       0       1    0.000000    8.757176   11.478009   15.864414
     149       0       1    0.000000   -3.675442   12.569016   16.596869
     150       0       1    0.000000   -3.890359   14.358083   17.178247
     151       0       1    0.000000   -1.960178   14.532846   16.191987
     152       0       1    0.000000   -1.188260   15.698220   14.932599
     153       0       1    0.000000    0.367002   15.274641   14.129502
     154       0       1    0.000000    0.442272   15.997605   12.382236
     155       0       1    0.000000    1.288145   14.658471   11.172255
     156       0       1    0.000000   -0.195967   15.243525    9.698195
     157       0       1    0.000000    0.706393   13.811507    8.565091
     158       0       1    0.000000   -0.820514   12.721514    8.102516
     159       0       1    0.000000   -0.793123   10.954169    7.801519
     160       0       1    0.000000   -0.134318   10.188690    9.452745
     161       0       1    0.000000   -0.881665    8.827376   10.573913
     162       0       1    0.000000   -2.632207    8.021751   10.940666
     163       0       1    0.000000   -2.596316   10.137368   11.385865
     164       0       1    0.000000   -2.576373    8.298094   13.508265
     165       0       1    0.000000   -3.113923    9.368004   14.914216
     166       0       1    0.000000   -1.929810   10.460115   15.879705
     167       0       1    0.000000   -2.256303   11.646965   17.348797
     168       0       1    0.000000   -1.024554   12.915389   16.384693
     169       0       1    0.000000    0.482671   12.612951   15.440364
     170       0       1    0.000000    1.328512   13.723227   14.163273
     171       0       1    0.000000   -0.447716   12.577022   12.479965
     172       0       1    0.000000    2.941100   13.650469   11.741148
     173       0       1    0.000000    2.010558   12.545182   10.440826
     174       0       1    0.000000    1.282710   11.093467   10.269790
     175       0       1    0.000000    1.476513   10.425563   12.062773
     176       0       1    0.000000    2.448384   11.888366   13.180048
     177       0       1    0.000000    0.951850   11.112086   14.392991
     178       0       1    0.000000   -0.410278   10.021660   14.917744
     179       0       1    0.000000   -0.844308    8.882377   13.577199
     180       0       1    0.000000    0.133552    9.142390   12.064903
     181       0       1    0.000000    5.473527    5.474682   16.362395
     182       0       1    0.000000    5.067058    6.745023   14.888551
     183       0       1    0.000000    3.444166    7.369750   15.305767
     184       0       1    0.000000    2.678420    8.469916   16.669633
     185       0       1    0.000000    3.159219    6.988074   17.796543
     186       0       1    0.000000    4.476234    5.809654   17.782523
     187       0       1    0.000000    9.113341    4.219749    0.031976
     188       0       1    0.000000    5.147308    3.180153   17.168674
     189       0       1    0.000000    6.521237    3.792433   15.646447
     190       0       1    0.000000    3.037572    3.727526   15.220803
     191       0       1    0.000000    5.888329    4.147732   12.936023
     192       0       1    0.000000    4.846358    5.825537   13.301066
     193       0       1    0.000000    3.277733    6.636304   12.629360
     194       0       1    0.000000    2.693897    8.081123   13.721010
     195       0       1    0.000000    1.176754    9.179224   13.669348
     196       0       1    0.000000    0.412100    8.301961   15.332591
     197       0       1    0.000000    1.099506    6.932949   16.708853
     198       0       1    0.000000    1.116051    8.648886   17.696140
     199       0       1    0.000000    6.570968    6.781044    0.362565
     200       0       1    0.000000    6.455531    5.250583    1.402466
     201       0       1    0.000000    7.617119    3.977462    0.977660
     202       0       1    0.000000    6.708488    2.401704    0.774099
     203       0       1    0.000000    2.412348    0.983402   18.046913
     204       0       1    0.000000    4.004581    1.627555   17.173671
     205       0       1    0.000000    3.468026    0.583260   15.498152
     206       0       1    0.000000    5.015008    2.232523   14.341213
     207       0       1    0.000000    3.762376    2.016439   12.686952
     208       0       1    0.000000    4.052105    3.179183   11.748348
     209       0       1    0.000000    2.719419    4.251990   11.019588
     210       0       1    0.000000    2.934732    6.041047   10.437482
     211       0       1    0.000000    1.004271    6.215799   11.424239
     212       0       1    0.000000    0.232283    7.381211   12.683623
     213       0       1    0.000000   -1.323041    6.957601   13.486701
     214       0       1    0.000000   -1.402590    7.671878   15.240515
     215       0       1    0.000000   -2.381436    6.319391   16.433967
     216       0       1    0.000000   -0.790235    6.842072   17.961282
     217       0       1    0.000000    3.249323    5.728828    0.865596
     218       0       1    0.000000    4.817332    4.423436    1.224021
     219       0       1    0.000000    4.839737    2.634548    1.443733
     220       0       1    0.000000   -0.804707    1.875749   18.193703
     221       0       1    0.000000   -0.076479    0.512464   17.045845
     222       0       1    0.000000    1.674564   16.339622   16.682175
     223       0       1    0.000000    1.677034    1.809830   16.199548
     224       0       1    0.000000    1.620424   16.615138   14.107962
     225       0       1    0.000000    2.157971    1.050958   12.701969
     226       0       1    0.000000    0.973833    2.143075   11.736531
     227       0       1    0.000000    1.300338    3.329969   10.267542
     228       0       1    0.000000    0.068523    4.598314   11.231451
     229       0       1    0.000000   -1.438761    4.296465   12.175965
     230       0       1    0.000000   -2.284181    5.405332   13.455455
     231       0       1    0.000000   -0.450632    4.260555   15.122621
     232       0       1    0.000000    9.348152    4.893892   16.050854
     233       0       1    0.000000   -2.703400    4.363972   16.743795
     234       0       1    0.000000   -2.261576    2.734761   17.358890
     235       0       1    0.000000   -2.434491    2.107526   15.549627
     236       0       1    0.000000   -3.404247    3.577510   14.436313
     237       0       1    0.000000   -1.906686    2.794442   13.224817
     238       0       1    0.000000   -0.545713    1.704629   12.698494
     239       0       1    0.000000   -0.111710    0.565489   14.039091
     240       0       1    0.000000   -1.089482    0.825419   15.551401
     241       0       2   -0.030000    2.291692    1.901729    6.402410
     242       0       3    0.000000    2.493209    0.565467    7.535237
     243       0       4   -0.115000    2.822630    0.734826    9.174811
     244       0       4   -0.115000    2.986647   16.020522   10.068856
     245       0       4   -0.115000    2.974747   14.547612    9.470653
     246       0       4   -0.115000    2.917346   14.228252    7.887200
     247       0       5   -0.500000    3.354427    4.884511    2.627236
     248       0       6   -0.170000    6.233517    4.962533    3.183098
     249       0       4   -0.115000    2.504065   15.625583    7.075265
     250       0       7   -0.120000    3.269922    2.620226    8.215507
     251       0       7   -0.120000    3.760530    1.694720    4.723687
     252       0       7   -0.120000    5.401641    2.276306    3.471429
     253       0       8    0.700000    4.774527    3.959510    3.190199
     254       0       9   -0.180000    6.110589    6.724470    2.719951
     255       0      10    0.115000    2.700356    1.975033   10.144705
     256       0      10    0.115000    3.053650   16.011386   11.436231
     257       0      10    0.115000    3.403920   13.446032   10.213108
     258       0      10    0.115000    3.024009   12.963111    7.254752
     259       0      10    0.115000    2.388391   15.617012    5.684725
     260       0      11    0.060000    3.487741    3.373242    5.593192
     261       0      11    0.060000    4.617508    2.314354    5.673089
     262       0      11    0.060000    2.929380    1.413399    3.216698
     263       0      11    0.060000    4.039694    0.266652    4.362080
     264       0      11    0.060000    6.245284    1.925321    4.730893
     265       0      11    0.060000    5.325965    1.345379    2.253305
     266       0      11    0.060000    5.067419    6.591823    1.309008
     267       0      11    0.060000    4.746110    7.636542    3.691105
     268       0      11    0.060000    7.165222    7.777572    1.988685
     269       0       2   -0.030000    1.889328   10.193192    2.648533
     270       0       3    0.000000    1.598877    8.882858    1.672991
     271       0       4   -0.115000    1.257648    9.057442    0.039322
     272       0       4   -0.115000   -3.939417    7.703512   17.546718
     273       0       4   -0.115000   -3.883332    6.226970   18.143121
     274       0       4   -0.115000    1.167198    5.906766    1.327093
     275       0       5   -0.500000    0.710901   13.414940    6.613160
     276       0       6   -0.170000   11.588110   13.293758    6.024117
     277       0       4   -0.115000    1.571994    7.309421    2.137710
     278       0       7   -0.120000    0.630091   10.614053    3.516034
     279       0       7   -0.120000    0.066113    9.982391    4.945998
     280       0       7   -0.120000   -1.335149   10.606592    5.757550
     281       0       8    0.700000   -0.682261   12.273954    6.007513
     282       0       9   -0.180000   11.721677   15.041433    6.494024
     283       0      10    0.115000   -3.652639   10.292836   17.466834
     284       0      10    0.115000   -4.008823    7.694768   16.178582
     285       0      10    0.115000   -4.018174    5.109687   17.392415
     286       0      10    0.115000    1.021425    4.620435    1.940406
     287       0      10    0.115000    1.687037    7.300066    3.528362
     288       0      11    0.060000    0.551568   12.054526    3.556051
     289       0      11    0.060000   -0.832555   10.917520    3.530204
     290       0      11    0.060000    1.146801    9.776188    6.010290
     291       0      11    0.060000   -0.018450    8.583888    4.921645
     292       0      11    0.060000   11.587901   10.244845    4.480951
     293       0      11    0.060000   -1.261221    9.660905    6.964009
     294       0      11    0.060000   -0.991073   14.909217    7.904289
     295       0      11    0.060000   -0.670753   15.953452    5.522023
     296       0      11    0.060000   10.665553   16.094345    7.227374
     297       0       2   -0.030000    6.212152   15.132414   11.888121
     298       0       3    0.000000    5.960462   16.452927   10.874447
     299       0       4   -0.115000    5.620755   16.278607    9.240918
     300       0       4   -0.115000    5.450845    0.997990    8.346110
     301       0       4   -0.115000    5.463081    2.471408    8.944018
     302       0       4   -0.115000    5.520732    2.790768   10.527466
     303       0       5   -0.500000    5.083769   12.134682   15.787422
     304       0       6   -0.170000    2.204691   12.056494   15.231571
     305       0       4   -0.115000    5.935039    1.392906   11.339279
     306       0       7   -0.120000    5.007266   14.693879   12.795551
     307       0       7   -0.120000    4.363306   15.372101   14.180205
     308       0       7   -0.120000    3.017129   14.730436   14.971278
     309       0       8    0.700000    3.663958   13.059419   15.224556
     310       0       9   -0.180000    2.327622   10.294558   15.694711
     311       0      10    0.115000    5.740858   15.043226    8.266659
     312       0      10    0.115000    5.384569    1.007517    6.978429
     313       0      10    0.115000    5.034033    3.573063    8.201793
     314       0      10    0.115000    5.414234    4.055888   11.159933
     315       0      10    0.115000    6.049855    1.402008   12.729937
     316       0      11    0.060000    4.886816   13.281053   12.842067
     317       0      11    0.060000    3.632524   14.624231   12.382313
     318       0      11    0.060000    5.508884   15.575174   15.204838
     319       0      11    0.060000    4.333815    0.117944   14.125943
     320       0      11    0.060000    2.193039   15.092725   13.683918
     321       0      11    0.060000    3.111852   15.673484   16.161488
     322       0      11    0.060000    3.370792   10.427204   17.105654
     323       0      11    0.060000    3.692100    9.382486   14.723557
     324       0      11    0.060000    1.272989    9.241455   16.425976
     325       0       2   -0.030000    6.548884    6.825834   15.766128
     326       0       3    0.000000    6.839334    8.136169   16.741671
     327       0       4   -0.115000    7.180563    7.961586   18.375341
     328       0       4   -0.115000   12.377625    9.315515    0.867943
     329       0       4   -0.115000   12.321512   10.792053    0.271538
     330       0       4   -0.115000    7.271027   11.112287   17.087564
     331       0       5   -0.500000    7.727310    3.604087   11.801502
     332       0       6   -0.170000   -3.149900    3.725269   12.390546
     333       0       4   -0.115000    6.866217    9.709606   16.276952
     334       0       7   -0.120000    7.808112    6.404975   14.898644
     335       0       7   -0.120000    8.372099    7.036637   13.468663
     336       0       7   -0.120000    9.773360    6.412435   12.657112
     337       0       8    0.700000    9.120472    4.745073   12.407149
     338       0       9   -0.180000   10.473532    1.977594   11.920639
     339       0      10    0.115000   12.090850    6.726191    0.947828
     340       0      10    0.115000   12.447034    9.324259    2.236080
     341       0      10    0.115000   12.456232   11.909302    1.022189
     342       0      10    0.115000    7.416949   12.398724   16.474332
     343       0      10    0.115000    6.751173    9.718961   14.886300
     344       0      11    0.060000    7.886646    4.964501   14.858614
     345       0      11    0.060000    9.271098    6.101819   14.883524
     346       0      11    0.060000    7.291410    7.242839   12.404372
     347       0      11    0.060000    8.456663    8.435139   13.493011
     348       0      11    0.060000   -3.149690    6.774183   13.933711
     349       0      11    0.060000    9.699432    7.358123   11.450653
     350       0      11    0.060000    9.429283    2.109801   10.510399
     351       0      11    0.060000    9.108962    1.065592   12.892641
     352       0      11    0.060000   -2.227333    0.924671   11.187255
     353       0      10    0.115000    2.707111    6.678266    5.613725
     354       0      10    0.115000    4.371417    4.325267    6.879658
     355       0       4   -0.115000    3.992574    6.776641    6.675241
     356       0       4   -0.115000    3.857314    5.219441    8.758943
     357       0       4   -0.115000    5.024429    6.144766   10.078079
     358       0       4   -0.115000    6.150569    7.509204   10.191252
     359       0       4   -0.115000    6.192501    8.681067    8.912465
     360       0       4   -0.115000    5.019690    8.171268    7.672637
     361       0      10    0.115000    5.115026    5.196857   11.309499
     362       0      10    0.115000    7.001636    7.454555   11.364395
     363       0      10    0.115000    7.072669    9.861749    9.169748
     364       0      10    0.115000    5.096315    9.187639    6.631930
     365       0      10    0.115000    5.731019   10.366056   12.801173
     366       0      10    0.115000    5.669693   13.128111    9.892364
     367       0       4   -0.115000    4.469427   10.241535   11.653572
     368       0       4   -0.115000    4.567426   11.752887    9.656287
     369       0       4   -0.115000    3.412469   10.874065    8.335123
     370       0       4   -0.115000    2.287642    9.509823    8.223410
     371       0       4   -0.115000    2.245709    8.337960    9.502197
     372       0       4   -0.115000    3.418521    8.847759   10.742025
     373       0      10    0.115000    3.323185   11.822169    7.105163
     374       0      10    0.115000    1.436575    9.564472    7.050267
     375       0      10    0.115000    1.365540    7.157277    9.244915
     376       0      10    0.115000    3.341896    7.831388   11.782732
     377       0      10    0.115000    1.367968   14.971104    3.599880
     378       0      10    0.115000    1.304432   12.207881    0.700117
     379       0       4   -0.115000    0.106204   15.094453    2.452941
     380       0       4   -0.115000    0.204407   13.582686    0.455149
     381       0       4   -0.115000    7.775729   14.461893   17.535660
     382       0       4   -0.115000    6.650959   15.826157   17.423914
     383       0       4   -0.115000   11.639658    0.364019    0.300930
     384       0       4   -0.115000   12.812480   16.488202    1.540726
     385       0      10    0.115000    7.687315   13.514459   16.305674
     386       0      10    0.115000    5.799948   15.771553   16.250918
     387       0      10    0.115000   10.759493    1.544696    0.043650
     388       0      10    0.115000   12.735923    0.870507    2.581442
     389       0      10    0.115000    7.070233    2.048153   14.814777
     390       0      10    0.115000    7.133783    4.811146   17.714529
     391       0       4   -0.115000    8.332009    1.924574   15.961714
     392       0       4   -0.115000    8.233803    3.436340   17.959513
     393       0       4   -0.115000    0.662482    2.557134    0.879002
     394       0       4   -0.115000    1.787252    1.192871    0.990748
     395       0       4   -0.115000   -3.201447    0.021009   18.113732
     396       0       4   -0.115000   -4.374270    0.530825   16.873936
     397       0      10    0.115000    0.750903    3.504571    2.108988
     398       0      10    0.115000    2.638338    1.247261    2.163798
     399       0      10    0.115000   -2.321282   15.474331   18.371013
     400       0      10    0.115000   -4.297712   16.148519   15.833219

   Bonds


   Angles


   Dihedrals

       1      10     288     278     279     289
       2      10     289     279     280     292
       3      10     344     334     335     345