********************************************************************************
*                       GENERAL UTILITY LATTICE PROGRAM                        *
*                                 Julian Gale                                  *
*                      Nanochemistry Research Institute                        *
*                           Department of Chemistry                            *
*                    Curtin University, Western Australia                      *
********************************************************************************
* Version = 4.1.0 * Last modified =  21st June 2013                            *
********************************************************************************

**** Warning - inter/intra/both directive given on potential line ****
**** but the molecule directive is currently inactive             ****

**** Warning - inter/intra/both directive given on potential line ****
**** but the molecule directive is currently inactive             ****

**** Warning - inter/intra/both directive given on potential line ****
**** but the molecule directive is currently inactive             ****

**** Warning - inter/intra/both directive given on potential line ****
**** but the molecule directive is currently inactive             ****

**** Warning - inter/intra/both/bond directive given on potential line ****
**** but the molecule directive is currently inactive                  ****

**** Warning - inter/intra/both/bond directive given on potential line ****
**** but the molecule directive is currently inactive                  ****

**** Warning - inter/intra/both/bond directive given on potential line ****
**** but the molecule directive is currently inactive                  ****

**** Warning - inter/intra/both/bond directive given on potential line ****
**** but the molecule directive is currently inactive                  ****

**** Warning - inter/intra/both/bond directive given on potential line ****
**** but the molecule directive is currently inactive                  ****

**** Warning - inter/intra/both/bond directive given on potential line ****
**** but the molecule directive is currently inactive                  ****

**** Warning - inter/intra/both/bond directive given on potential line ****
**** but the molecule directive is currently inactive                  ****

**** Warning - inter/intra/both/bond directive given on potential line ****
**** but the molecule directive is currently inactive                  ****
*  optimise     - perform optimisation run                                     *
*  phonon       - calculate phonons for final geometry                         *
*  thermal      - calculate thermal conductivity for final geometry            *
********************************************************************************

  Job Started  at 19:18.35  7th July       2013                               

  Number of CPUs =     1


  Total number of configurations input =   1

********************************************************************************
*  Input for Configuration =   1                                               *
********************************************************************************

  Formula = C312O8H80                                                   

  Number of irreducible atoms/shells =     400


  Total number atoms/shells =     400

  Dimensionality = 3               :  Bulk   



  Cartesian lattice vectors (Angstroms) :

       13.757000    0.000000    0.000000
        0.000000   16.634000    0.000000
       -5.030695    0.000000   18.401740

  Cell parameters (Angstroms/Degrees):

  a =      13.7570    alpha =  90.0000
  b =      16.6340    beta  = 105.2900
  c =      19.0770    gamma =  90.0000

  Initial cell volume =        4210.942670 Angs**3

  Temperature of configuration =  0.000     K 

  Pressure of configuration =         0.000 GPa 

  Fractional coordinates of asymmetric unit :

--------------------------------------------------------------------------------
   No.  Atomic       x           y          z         Charge      Occupancy
        Label      (Frac)      (Frac)     (Frac)        (e)         (Frac)  
--------------------------------------------------------------------------------
      1 C1    c    0.215559    0.184381    0.392082     0.00000    1.000000    
      2 C1    c    0.165164 *  0.126488 *  0.323448 *   0.00000    1.000000    
      3 C1    c    0.083390 *  0.072743 *  0.333990 *   0.00000    1.000000    
      4 C1    c    0.059361 *  0.064386 *  0.399473 *   0.00000    1.000000    
      5 C1    c    0.105190 *  0.116689 *  0.461587 *   0.00000    1.000000    
      6 C1    c    0.172979 *  0.175243 *  0.455935 *   0.00000    1.000000    
      7 C1    c    0.164479 *  0.254479 *  0.484574 *   0.00000    1.000000    
      8 C1    c    0.187314 *  0.313635 *  0.435502 *   0.00000    1.000000    
      9 C1    c    0.209709 *  0.271492 *  0.375291 *   0.00000    1.000000    
     10 C1    c    0.176470 *  0.303114 *  0.306656 *   0.00000    1.000000    
     11 C1    c    0.129688 *  0.250631 *  0.244325 *   0.00000    1.000000    
     12 C1    c    0.120267 *  0.169232 *  0.253943 *   0.00000    1.000000    
     13 C1    c    0.026815 *  0.129975 *  0.218240 *   0.00000    1.000000    
     14 C1    c    0.003988 *  0.071300 *  0.267529 *   0.00000    1.000000    
     15 C1    c    0.904692 *  0.056631 *  0.266931 *   0.00000    1.000000    
     16 C1    c    0.879535 *  0.045690 *  0.335294 *   0.00000    1.000000    
     17 C1    c    0.955097 *  0.050619 *  0.399799 *   0.00000    1.000000    
     18 C1    c    0.936205 *  0.092822 *  0.461641 *   0.00000    1.000000    
     19 C1    c    0.028026 *  0.134003 *  0.499246 *   0.00000    1.000000    
     20 C1    c    0.023156 *  0.209330 *  0.529461 *   0.00000    1.000000    
     21 C1    c    0.092542 *  0.271492 *  0.522016 *   0.00000    1.000000    
     22 C1    c    0.040335 *  0.347902 *  0.511636 *   0.00000    1.000000    
     23 C1    c    0.062358 *  0.404232 *  0.464521 *   0.00000    1.000000    
     24 C1    c    0.137837 *  0.387459 *  0.425829 *   0.00000    1.000000    
     25 C1    c    0.104720 *  0.420644 *  0.354151 *   0.00000    1.000000    
     26 C1    c    0.122358 *  0.378923 *  0.295244 *   0.00000    1.000000    
     27 C1    c    0.044388 *  0.374233 *  0.227533 *   0.00000    1.000000    
     28 C1    c    0.049238 *  0.295659 *  0.196666 *   0.00000    1.000000    
     29 C1    c    0.960603 *  0.256523 *  0.159822 *   0.00000    1.000000    
     30 C1    c    0.949452 *  0.172177 *  0.171071 *   0.00000    1.000000    
     31 C1    c    0.845253 *  0.157569 *  0.171179 *   0.00000    1.000000    
     32 C1    c    0.823501 *  0.100757 *  0.218240 *   0.00000    1.000000    
     33 C1    c    0.748148 *  0.117651 *  0.256878 *   0.00000    1.000000    
     34 C1    c    0.782521 *  0.084225 *  0.329208 *   0.00000    1.000000    
     35 C1    c    0.764347 *  0.124444 *  0.387844 *   0.00000    1.000000    
     36 C1    c    0.843104 *  0.129434 *  0.455718 *   0.00000    1.000000    
     37 C1    c    0.837844 *  0.207827 *  0.486856 *   0.00000    1.000000    
     38 C1    c    0.926248 *  0.247565 *  0.523266 *   0.00000    1.000000    
     39 C1    c    0.936772 *  0.333053 *  0.512289 *   0.00000    1.000000    
     40 C1    c    0.858767 *  0.375436 *  0.465554 *   0.00000    1.000000    
     41 C1    c    0.881899 *  0.434712 *  0.416102 *   0.00000    1.000000    
     42 C1    c    0.981563 *  0.448900 *  0.415722 *   0.00000    1.000000    
     43 C1    c    0.007864 *  0.458879 *  0.347304 *   0.00000    1.000000    
     44 C1    c    0.933286 *  0.454310 *  0.282310 *   0.00000    1.000000    
     45 C1    c    0.951815 *  0.411747 *  0.221066 *   0.00000    1.000000    
     46 C1    c    0.859214 *  0.370867 *  0.182917 *   0.00000    1.000000    
     47 C1    c    0.863767 *  0.295840 *  0.153029 *   0.00000    1.000000    
     48 C1    c    0.792960 *  0.233738 *  0.160365 *   0.00000    1.000000    
     49 C1    c    0.720203 *  0.250150 *  0.197155 *   0.00000    1.000000    
     50 C1    c    0.697210 *  0.190994 *  0.246390 *   0.00000    1.000000    
     51 C1    c    0.678219 *  0.233438 *  0.307960 *   0.00000    1.000000    
     52 C1    c    0.711565 *  0.200733 *  0.377084 *   0.00000    1.000000    
     53 C1    c    0.756792 *  0.252495 *  0.438545 *   0.00000    1.000000    
     54 C1    c    0.767481 *  0.333774 *  0.427623 *   0.00000    1.000000    
     55 C1    c    0.733101 *  0.368041 *  0.355075 *   0.00000    1.000000    
     56 C1    c    0.689449 *  0.318685 *  0.296928 *   0.00000    1.000000    
     57 C1    c    0.715234 *  0.329025 *  0.228294 *   0.00000    1.000000    
     58 C1    c    0.783372 *  0.388061 *  0.221012 *   0.00000    1.000000    
     59 C1    c    0.829452 *  0.439642 *  0.283017 *   0.00000    1.000000    
     60 C1    c    0.804074 *  0.429842 *  0.348391 *   0.00000    1.000000    
     61 C1    c    0.284432 *  0.684381 *  0.107925 *   0.00000    1.000000    
     62 C1    c    0.334827 *  0.626488 *  0.176559 *   0.00000    1.000000    
     63 C1    c    0.416601 *  0.572743 *  0.166017 *   0.00000    1.000000    
     64 C1    c    0.440631 *  0.564386 *  0.100534 *   0.00000    1.000000    
     65 C1    c    0.394801 *  0.616689 *  0.038420 *   0.00000    1.000000    
     66 C1    c    0.327013 *  0.675243 *  0.044072 *   0.00000    1.000000    
     67 C1    c    0.335512 *  0.754479 *  0.015433 *   0.00000    1.000000    
     68 C1    c    0.312677 *  0.813635 *  0.064505 *   0.00000    1.000000    
     69 C1    c    0.290282 *  0.771492 *  0.124716 *   0.00000    1.000000    
     70 C1    c    0.323522 *  0.803114 *  0.193351 *   0.00000    1.000000    
     71 C1    c    0.370303 *  0.750631 *  0.255682 *   0.00000    1.000000    
     72 C1    c    0.379725 *  0.669232 *  0.246064 *   0.00000    1.000000    
     73 C1    c    0.473176 *  0.629975 *  0.281767 *   0.00000    1.000000    
     74 C1    c    0.496004 *  0.571300 *  0.232478 *   0.00000    1.000000    
     75 C1    c    0.595299 *  0.556631 *  0.233076 *   0.00000    1.000000    
     76 C1    c    0.620456 *  0.545690 *  0.164713 *   0.00000    1.000000    
     77 C1    c    0.544895 *  0.550619 *  0.100208 *   0.00000    1.000000    
     78 C1    c    0.563786 *  0.592822 *  0.038366 *   0.00000    1.000000    
     79 C1    c    0.471965 *  0.634003 *  0.000761 *   0.00000    1.000000    
     80 C1    c    0.476836 *  0.709330 *  0.970546 *   0.00000    1.000000    
     81 C1    c    0.407449 *  0.771492 *  0.977991 *   0.00000    1.000000    
     82 C1    c    0.459657 *  0.847902 *  0.988371 *   0.00000    1.000000    
     83 C1    c    0.437633 *  0.904232 *  0.035486 *   0.00000    1.000000    
     84 C1    c    0.362155 *  0.887459 *  0.074178 *   0.00000    1.000000    
     85 C1    c    0.395272 *  0.920644 *  0.145856 *   0.00000    1.000000    
     86 C1    c    0.377633 *  0.878923 *  0.204763 *   0.00000    1.000000    
     87 C1    c    0.455603 *  0.874233 *  0.272474 *   0.00000    1.000000    
     88 C1    c    0.450753 *  0.795659 *  0.303341 *   0.00000    1.000000    
     89 C1    c    0.539389 *  0.756523 *  0.340185 *   0.00000    1.000000    
     90 C1    c    0.550540 *  0.672177 *  0.328936 *   0.00000    1.000000    
     91 C1    c    0.654738 *  0.657569 *  0.328828 *   0.00000    1.000000    
     92 C1    c    0.676491 *  0.600757 *  0.281767 *   0.00000    1.000000    
     93 C1    c    0.751843 *  0.617651 *  0.243129 *   0.00000    1.000000    
     94 C1    c    0.717470 *  0.584225 *  0.170799 *   0.00000    1.000000    
     95 C1    c    0.735644 *  0.624444 *  0.112163 *   0.00000    1.000000    
     96 C1    c    0.656888 *  0.629434 *  0.044289 *   0.00000    1.000000    
     97 C1    c    0.662147 *  0.707827 *  0.013151 *   0.00000    1.000000    
     98 C1    c    0.573744 *  0.747565 *  0.976741 *   0.00000    1.000000    
     99 C1    c    0.563220 *  0.833053 *  0.987719 *   0.00000    1.000000    
    100 C1    c    0.641224 *  0.875436 *  0.034453 *   0.00000    1.000000    
    101 C1    c    0.618093 *  0.934712 *  0.083905 *   0.00000    1.000000    
    102 C1    c    0.518428 *  0.948900 *  0.084286 *   0.00000    1.000000    
    103 C1    c    0.492128 *  0.958879 *  0.152703 *   0.00000    1.000000    
    104 C1    c    0.566705 *  0.954310 *  0.217697 *   0.00000    1.000000    
    105 C1    c    0.548177 *  0.911747 *  0.278941 *   0.00000    1.000000    
    106 C1    c    0.640778 *  0.870867 *  0.317090 *   0.00000    1.000000    
    107 C1    c    0.636225 *  0.795840 *  0.346978 *   0.00000    1.000000    
    108 C1    c    0.707032 *  0.733738 *  0.339642 *   0.00000    1.000000    
    109 C1    c    0.779789 *  0.750150 *  0.302852 *   0.00000    1.000000    
    110 C1    c    0.802782 *  0.690994 *  0.253617 *   0.00000    1.000000    
    111 C1    c    0.821773 *  0.733438 *  0.192047 *   0.00000    1.000000    
    112 C1    c    0.788427 *  0.700733 *  0.122923 *   0.00000    1.000000    
    113 C1    c    0.743199 *  0.752495 *  0.061462 *   0.00000    1.000000    
    114 C1    c    0.732510 *  0.833774 *  0.072384 *   0.00000    1.000000    
    115 C1    c    0.766890 *  0.868041 *  0.144932 *   0.00000    1.000000    
    116 C1    c    0.810542 *  0.818685 *  0.203079 *   0.00000    1.000000    
    117 C1    c    0.784757 *  0.829025 *  0.271713 *   0.00000    1.000000    
    118 C1    c    0.716620 *  0.888061 *  0.278995 *   0.00000    1.000000    
    119 C1    c    0.670540 *  0.939642 *  0.216990 *   0.00000    1.000000    
    120 C1    c    0.695917 *  0.929842 *  0.151616 *   0.00000    1.000000    
    121 C1    c    0.784424 *  0.815619 *  0.607932 *   0.00000    1.000000    
    122 C1    c    0.834819 *  0.873512 *  0.676566 *   0.00000    1.000000    
    123 C1    c    0.916593 *  0.927257 *  0.666024 *   0.00000    1.000000    
    124 C1    c    0.940622 *  0.935614 *  0.600541 *   0.00000    1.000000    
    125 C1    c    0.894793 *  0.883311 *  0.538427 *   0.00000    1.000000    
    126 C1    c    0.827004 *  0.824757 *  0.544079 *   0.00000    1.000000    
    127 C1    c    0.835504 *  0.745521 *  0.515440 *   0.00000    1.000000    
    128 C1    c    0.812669 *  0.686365 *  0.564512 *   0.00000    1.000000    
    129 C1    c    0.790274 *  0.728508 *  0.624724 *   0.00000    1.000000    
    130 C1    c    0.823513 *  0.696886 *  0.693358 *   0.00000    1.000000    
    131 C1    c    0.870295 *  0.749369 *  0.755689 *   0.00000    1.000000    
    132 C1    c    0.879716 *  0.830768 *  0.746071 *   0.00000    1.000000    
    133 C1    c    0.973168 *  0.870025 *  0.781774 *   0.00000    1.000000    
    134 C1    c    0.995995 *  0.928700 *  0.732485 *   0.00000    1.000000    
    135 C1    c    0.095291 *  0.943369 *  0.733083 *   0.00000    1.000000    
    136 C1    c    0.120448 *  0.954310 *  0.664720 *   0.00000    1.000000    
    137 C1    c    0.044886 *  0.949381 *  0.600215 *   0.00000    1.000000    
    138 C1    c    0.063778 *  0.907178 *  0.538373 *   0.00000    1.000000    
    139 C1    c    0.971957 *  0.865997 *  0.500768 *   0.00000    1.000000    
    140 C1    c    0.976827 *  0.790670 *  0.470553 *   0.00000    1.000000    
    141 C1    c    0.907441 *  0.728508 *  0.477998 *   0.00000    1.000000    
    142 C1    c    0.959648 *  0.652098 *  0.488378 *   0.00000    1.000000    
    143 C1    c    0.937625 *  0.595768 *  0.535493 *   0.00000    1.000000    
    144 C1    c    0.862146 *  0.612541 *  0.574185 *   0.00000    1.000000    
    145 C1    c    0.895263 *  0.579356 *  0.645863 *   0.00000    1.000000    
    146 C1    c    0.877625 *  0.621077 *  0.704770 *   0.00000    1.000000    
    147 C1    c    0.955595 *  0.625767 *  0.772481 *   0.00000    1.000000    
    148 C1    c    0.950745 *  0.704341 *  0.803348 *   0.00000    1.000000    
    149 C1    c    0.039380 *  0.743477 *  0.840192 *   0.00000    1.000000    
    150 C1    c    0.050531 *  0.827823 *  0.828943 *   0.00000    1.000000    
    151 C1    c    0.154730 *  0.842431 *  0.828835 *   0.00000    1.000000    
    152 C1    c    0.176482 *  0.899243 *  0.781774 *   0.00000    1.000000    
    153 C1    c    0.251835 *  0.882349 *  0.743136 *   0.00000    1.000000    
    154 C1    c    0.217462 *  0.915775 *  0.670806 *   0.00000    1.000000    
    155 C1    c    0.235636 *  0.875556 *  0.612170 *   0.00000    1.000000    
    156 C1    c    0.156879 *  0.870566 *  0.544296 *   0.00000    1.000000    
    157 C1    c    0.162139 *  0.792173 *  0.513158 *   0.00000    1.000000    
    158 C1    c    0.073735 *  0.752435 *  0.476748 *   0.00000    1.000000    
    159 C1    c    0.063211 *  0.666947 *  0.487726 *   0.00000    1.000000    
    160 C1    c    0.141216 *  0.624564 *  0.534460 *   0.00000    1.000000    
    161 C1    c    0.118084 *  0.565288 *  0.583912 *   0.00000    1.000000    
    162 C1    c    0.018420 *  0.551100 *  0.584293 *   0.00000    1.000000    
    163 C1    c    0.992119 *  0.541121 *  0.652710 *   0.00000    1.000000    
    164 C1    c    0.066697 *  0.545690 *  0.717704 *   0.00000    1.000000    
    165 C1    c    0.048168 *  0.588253 *  0.778948 *   0.00000    1.000000    
    166 C1    c    0.140769 *  0.629133 *  0.817097 *   0.00000    1.000000    
    167 C1    c    0.136216 *  0.704160 *  0.846985 *   0.00000    1.000000    
    168 C1    c    0.207023 *  0.766262 *  0.839649 *   0.00000    1.000000    
    169 C1    c    0.279780 *  0.749850 *  0.802859 *   0.00000    1.000000    
    170 C1    c    0.302773 *  0.809006 *  0.753624 *   0.00000    1.000000    
    171 C1    c    0.321764 *  0.766562 *  0.692054 *   0.00000    1.000000    
    172 C1    c    0.288418 *  0.799267 *  0.622930 *   0.00000    1.000000    
    173 C1    c    0.243191 *  0.747505 *  0.561469 *   0.00000    1.000000    
    174 C1    c    0.232502 *  0.666226 *  0.572392 *   0.00000    1.000000    
    175 C1    c    0.266882 *  0.631959 *  0.644939 *   0.00000    1.000000    
    176 C1    c    0.310533 *  0.681315 *  0.703086 *   0.00000    1.000000    
    177 C1    c    0.284749 *  0.670975 *  0.771720 *   0.00000    1.000000    
    178 C1    c    0.216611 *  0.611939 *  0.779002 *   0.00000    1.000000    
    179 C1    c    0.170531 *  0.560358 *  0.716997 *   0.00000    1.000000    
    180 C1    c    0.195909 *  0.570158 *  0.651623 *   0.00000    1.000000    
    181 C1    c    0.715551 *  0.315619 *  0.892090 *   0.00000    1.000000    
    182 C1    c    0.665156 *  0.373512 *  0.823455 *   0.00000    1.000000    
    183 C1    c    0.583382 *  0.427257 *  0.833997 *   0.00000    1.000000    
    184 C1    c    0.559352 *  0.435614 *  0.899480 *   0.00000    1.000000    
    185 C1    c    0.605182 *  0.383311 *  0.961594 *   0.00000    1.000000    
    186 C1    c    0.672970 *  0.324757 *  0.955942 *   0.00000    1.000000    
    187 C1    c    0.664471 *  0.245521 *  0.984581 *   0.00000    1.000000    
    188 C1    c    0.687306 *  0.186365 *  0.935509 *   0.00000    1.000000    
    189 C1    c    0.709701 *  0.228508 *  0.875298 *   0.00000    1.000000    
    190 C1    c    0.676461 *  0.196886 *  0.806663 *   0.00000    1.000000    
    191 C1    c    0.629680 *  0.249369 *  0.744332 *   0.00000    1.000000    
    192 C1    c    0.620258 *  0.330768 *  0.753950 *   0.00000    1.000000    
    193 C1    c    0.526807 *  0.370025 *  0.718247 *   0.00000    1.000000    
    194 C1    c    0.503979 *  0.428700 *  0.767536 *   0.00000    1.000000    
    195 C1    c    0.404684 *  0.443369 *  0.766938 *   0.00000    1.000000    
    196 C1    c    0.379527 *  0.454310 *  0.835301 *   0.00000    1.000000    
    197 C1    c    0.455088 *  0.449381 *  0.899806 *   0.00000    1.000000    
    198 C1    c    0.436197 *  0.407178 *  0.961648 *   0.00000    1.000000    
    199 C1    c    0.528018 *  0.365997 *  0.999253 *   0.00000    1.000000    
    200 C1    c    0.523147 *  0.290670 *  0.029468 *   0.00000    1.000000    
    201 C1    c    0.592534 *  0.228508 *  0.022023 *   0.00000    1.000000    
    202 C1    c    0.540326 *  0.152098 *  0.011643 *   0.00000    1.000000    
    203 C1    c    0.562350 *  0.095768 *  0.964528 *   0.00000    1.000000    
    204 C1    c    0.637828 *  0.112541 *  0.925836 *   0.00000    1.000000    
    205 C1    c    0.604711 *  0.079356 *  0.854158 *   0.00000    1.000000    
    206 C1    c    0.622350 *  0.121077 *  0.795251 *   0.00000    1.000000    
    207 C1    c    0.544380 *  0.125767 *  0.727540 *   0.00000    1.000000    
    208 C1    c    0.549230 *  0.204341 *  0.696673 *   0.00000    1.000000    
    209 C1    c    0.460594 *  0.243477 *  0.659829 *   0.00000    1.000000    
    210 C1    c    0.449443 *  0.327823 *  0.671078 *   0.00000    1.000000    
    211 C1    c    0.345245 *  0.342431 *  0.671187 *   0.00000    1.000000    
    212 C1    c    0.323492 *  0.399243 *  0.718247 *   0.00000    1.000000    
    213 C1    c    0.248140 *  0.382349 *  0.756885 *   0.00000    1.000000    
    214 C1    c    0.282513 *  0.415775 *  0.829215 *   0.00000    1.000000    
    215 C1    c    0.264339 *  0.375556 *  0.887851 *   0.00000    1.000000    
    216 C1    c    0.343095 *  0.370566 *  0.955725 *   0.00000    1.000000    
    217 C1    c    0.337836 *  0.292173 *  0.986863 *   0.00000    1.000000    
    218 C1    c    0.426239 *  0.252435 *  0.023273 *   0.00000    1.000000    
    219 C1    c    0.436763 *  0.166947 *  0.012296 *   0.00000    1.000000    
    220 C1    c    0.358759 *  0.124564 *  0.965561 *   0.00000    1.000000    
    221 C1    c    0.381890 *  0.065288 *  0.916109 *   0.00000    1.000000    
    222 C1    c    0.481555 *  0.051100 *  0.915729 *   0.00000    1.000000    
    223 C1    c    0.507855 *  0.041121 *  0.847311 *   0.00000    1.000000    
    224 C1    c    0.433278 *  0.045690 *  0.782317 *   0.00000    1.000000    
    225 C1    c    0.451806 *  0.088253 *  0.721073 *   0.00000    1.000000    
    226 C1    c    0.359205 *  0.129133 *  0.682925 *   0.00000    1.000000    
    227 C1    c    0.363758 *  0.204160 *  0.653036 *   0.00000    1.000000    
    228 C1    c    0.292951 *  0.266262 *  0.660372 *   0.00000    1.000000    
    229 C1    c    0.220194 *  0.249850 *  0.697162 *   0.00000    1.000000    
    230 C1    c    0.197201 *  0.309006 *  0.746397 *   0.00000    1.000000    
    231 C1    c    0.178210 *  0.266562 *  0.807967 *   0.00000    1.000000    
    232 C1    c    0.211556 *  0.299267 *  0.877091 *   0.00000    1.000000    
    233 C1    c    0.256784 *  0.247505 *  0.938553 *   0.00000    1.000000    
    234 C1    c    0.267473 *  0.166226 *  0.927630 *   0.00000    1.000000    
    235 C1    c    0.233093 *  0.131959 *  0.855082 *   0.00000    1.000000    
    236 C1    c    0.189441 *  0.181315 *  0.796935 *   0.00000    1.000000    
    237 C1    c    0.215226 *  0.170975 *  0.728301 *   0.00000    1.000000    
    238 C1    c    0.283363 *  0.111939 *  0.721019 *   0.00000    1.000000    
    239 C1    c    0.329443 *  0.060358 *  0.783024 *   0.00000    1.000000    
    240 C1    c    0.304066 *  0.070158 *  0.848398 *   0.00000    1.000000    
    241 C7    c    0.275900 *  0.121678 *  0.363879 *  -0.03000    1.000000    
    242 C3    c    0.310337 *  0.049297 *  0.410939 *   0.00000    1.000000    
    243 C2    c    0.358595 *  0.059036 *  0.484465 *  -0.11500    1.000000    
    244 C2    c    0.393803 *  0.992485 *  0.528265 *  -0.11500    1.000000    
    245 C2    c    0.381802 *  0.916196 *  0.498431 *  -0.11500    1.000000    
    246 C2    c    0.334721 *  0.905855 *  0.425340 *  -0.11500    1.000000    
    247 O1    c    0.301640 *  0.250090 *  0.167702 *  -0.50000    1.000000    
    248 O2    c    0.466795 *  0.279127 *  0.194547 *  -0.17000    1.000000    
    249 C2    c    0.298397 *  0.971925 *  0.381866 *  -0.11500    1.000000    
    250 C5    c    0.351060 *  0.153361 *  0.323719 *  -0.12000    1.000000    
    251 C5    c    0.353426 *  0.105627 *  0.255845 *  -0.12000    1.000000    
    252 C5    c    0.423266 *  0.145786 *  0.215251 *  -0.12000    1.000000    
    253 C4    c    0.388716 *  0.229470 *  0.190145 *   0.70000    1.000000    
    254 C6    c    0.441468 *  0.362330 *  0.173788 *  -0.18000    1.000000    
    255 H1    c    0.366860 *  0.116088 *  0.504681 *   0.11500    1.000000    
    256 H1    c    0.431708 *  0.001503 *  0.581630 *   0.11500    1.000000    
    257 H1    c    0.410820 *  0.868522 *  0.529678 *   0.11500    1.000000    
    258 H1    c    0.322370 *  0.851689 *  0.402299 *   0.11500    1.000000    
    259 H1    c    0.260922 *  0.958278 *  0.328882 *   0.11500    1.000000    
    260 H2    c    0.332234 *  0.210713 *  0.309210 *   0.06000    1.000000    
    261 H2    c    0.425284 *  0.154082 *  0.361705 *   0.06000    1.000000    
    262 H2    c    0.280888 *  0.102381 *  0.218892 *   0.06000    1.000000    
    263 H2    c    0.377063 *  0.048515 *  0.270790 *   0.06000    1.000000    
    264 H2    c    0.492884 *  0.149092 *  0.246607 *   0.06000    1.000000    
    265 H2    c    0.425221 *  0.115607 *  0.169114 *   0.06000    1.000000    
    266 H2    c    0.391978 *  0.364915 *  0.127705 *   0.06000    1.000000    
    267 H2    c    0.410207 *  0.387880 *  0.214328 *   0.06000    1.000000    
    268 H2    c    0.510012 *  0.386317 *  0.170799 *   0.06000    1.000000    
    269 C7    c    0.224091 *  0.621678 *  0.136128 *  -0.03000    1.000000    
    270 C3    c    0.189654 *  0.549297 *  0.089068 *   0.00000    1.000000    
    271 C2    c    0.141396 *  0.559036 *  0.015542 *  -0.11500    1.000000    
    272 C2    c    0.106189 *  0.492485 *  0.971742 *  -0.11500    1.000000    
    273 C2    c    0.118189 *  0.416196 *  0.001576 *  -0.11500    1.000000    
    274 C2    c    0.165270 *  0.405855 *  0.074667 *  -0.11500    1.000000    
    275 O1    c    0.198352 *  0.750090 *  0.332306 *  -0.50000    1.000000    
    276 O2    c    0.033196 *  0.779127 *  0.305460 *  -0.17000    1.000000    
    277 C2    c    0.201594 *  0.471925 *  0.118141 *  -0.11500    1.000000    
    278 C5    c    0.148931 *  0.653361 *  0.176288 *  -0.12000    1.000000    
    279 C5    c    0.146566 *  0.605627 *  0.244162 *  -0.12000    1.000000    
    280 C5    c    0.076726 *  0.645786 *  0.284756 *  -0.12000    1.000000    
    281 C4    c    0.111276 *  0.729470 *  0.309862 *   0.70000    1.000000    
    282 C6    c    0.058524 *  0.862330 *  0.326219 *  -0.18000    1.000000    
    283 H1    c    0.133131 *  0.616088 *  0.995327 *   0.11500    1.000000    
    284 H1    c    0.068284 *  0.501503 *  0.918377 *   0.11500    1.000000    
    285 H1    c    0.089172 *  0.368522 *  0.970329 *   0.11500    1.000000    
    286 H1    c    0.177622 *  0.351689 *  0.097708 *   0.11500    1.000000    
    287 H1    c    0.239069 *  0.458278 *  0.171125 *   0.11500    1.000000    
    288 H2    c    0.167758 *  0.710713 *  0.190797 *   0.06000    1.000000    
    289 H2    c    0.074708 *  0.654082 *  0.138302 *   0.06000    1.000000    
    290 H2    c    0.219103 *  0.602381 *  0.281115 *   0.06000    1.000000    
    291 H2    c    0.122928 *  0.548515 *  0.229217 *   0.06000    1.000000    
    292 H2    c    0.007107 *  0.649092 *  0.253400 *   0.06000    1.000000    
    293 H2    c    0.074771 *  0.615607 *  0.330893 *   0.06000    1.000000    
    294 H2    c    0.108013 *  0.864915 *  0.372302 *   0.06000    1.000000    
    295 H2    c    0.089785 *  0.887880 *  0.285680 *   0.06000    1.000000    
    296 H2    c    0.989979 *  0.886317 *  0.329208 *   0.06000    1.000000    
    297 C7    c    0.724083 *  0.878322 *  0.636135 *  -0.03000    1.000000    
    298 C3    c    0.689646 *  0.950703 *  0.589075 *   0.00000    1.000000    
    299 C2    c    0.641388 *  0.940964 *  0.515549 *  -0.11500    1.000000    
    300 C2    c    0.606180 *  0.007515 *  0.471749 *  -0.11500    1.000000    
    301 C2    c    0.618181 *  0.083804 *  0.501583 *  -0.11500    1.000000    
    302 C2    c    0.665262 *  0.094145 *  0.574674 *  -0.11500    1.000000    
    303 O1    c    0.698343 *  0.749910 *  0.832313 *  -0.50000    1.000000    
    304 O2    c    0.533187 *  0.720873 *  0.805467 *  -0.17000    1.000000    
    305 C2    c    0.701586 *  0.028075 *  0.618148 *  -0.11500    1.000000    
    306 C5    c    0.648923 *  0.846639 *  0.676295 *  -0.12000    1.000000    
    307 C5    c    0.646557 *  0.894373 *  0.744169 *  -0.12000    1.000000    
    308 C5    c    0.576717 *  0.854214 *  0.784763 *  -0.12000    1.000000    
    309 C4    c    0.611267 *  0.770530 *  0.809869 *   0.70000    1.000000    
    310 C6    c    0.558515 *  0.637670 *  0.826226 *  -0.18000    1.000000    
    311 H1    c    0.633123 *  0.883912 *  0.495334 *   0.11500    1.000000    
    312 H1    c    0.568275 *  0.998497 *  0.418384 *   0.11500    1.000000    
    313 H1    c    0.589163 *  0.131478 *  0.470336 *   0.11500    1.000000    
    314 H1    c    0.677613 *  0.148311 *  0.597715 *   0.11500    1.000000    
    315 H1    c    0.739061 *  0.041722 *  0.671132 *   0.11500    1.000000    
    316 H2    c    0.667749 *  0.789287 *  0.690804 *   0.06000    1.000000    
    317 H2    c    0.574699 *  0.845918 *  0.638309 *   0.06000    1.000000    
    318 H2    c    0.719095 *  0.897619 *  0.781122 *   0.06000    1.000000    
    319 H2    c    0.622920 *  0.951485 *  0.729225 *   0.06000    1.000000    
    320 H2    c    0.507099 *  0.850908 *  0.753407 *   0.06000    1.000000    
    321 H2    c    0.574762 *  0.884393 *  0.830900 *   0.06000    1.000000    
    322 H2    c    0.608005 *  0.635085 *  0.872309 *   0.06000    1.000000    
    323 H2    c    0.589776 *  0.612120 *  0.785687 *   0.06000    1.000000    
    324 H2    c    0.489971 *  0.613683 *  0.829215 *   0.06000    1.000000    
    325 C7    c    0.775892 *  0.378322 *  0.863886 *  -0.03000    1.000000    
    326 C3    c    0.810329 *  0.450703 *  0.910946 *   0.00000    1.000000    
    327 C2    c    0.858587 *  0.440964 *  0.984472 *  -0.11500    1.000000    
    328 C2    c    0.893794 *  0.507515 *  0.028272 *  -0.11500    1.000000    
    329 C2    c    0.881794 *  0.583804 *  0.998438 *  -0.11500    1.000000    
    330 C2    c    0.834712 *  0.594145 *  0.925347 *  -0.11500    1.000000    
    331 O1    c    0.801631 *  0.249910 *  0.667709 *  -0.50000    1.000000    
    332 O2    c    0.966787 *  0.220873 *  0.694554 *  -0.17000    1.000000    
    333 C2    c    0.798389 *  0.528075 *  0.881873 *  -0.11500    1.000000    
    334 C5    c    0.851052 *  0.346639 *  0.823726 *  -0.12000    1.000000    
    335 C5    c    0.853417 *  0.394373 *  0.755852 *  -0.12000    1.000000    
    336 C5    c    0.923257 *  0.354214 *  0.715258 *  -0.12000    1.000000    
    337 C4    c    0.888707 *  0.270530 *  0.690152 *   0.70000    1.000000    
    338 C6    c    0.941459 *  0.137670 *  0.673795 *  -0.18000    1.000000    
    339 H1    c    0.866852 *  0.383912 *  0.004688 *   0.11500    1.000000    
    340 H1    c    0.931699 *  0.498497 *  0.081637 *   0.11500    1.000000    
    341 H1    c    0.910811 *  0.631478 *  0.029685 *   0.11500    1.000000    
    342 H1    c    0.822361 *  0.648311 *  0.902306 *   0.11500    1.000000    
    343 H1    c    0.760914 *  0.541722 *  0.828889 *   0.11500    1.000000    
    344 H2    c    0.832225 *  0.289287 *  0.809217 *   0.06000    1.000000    
    345 H2    c    0.925275 *  0.345918 *  0.861712 *   0.06000    1.000000    
    346 H2    c    0.780880 *  0.397619 *  0.718899 *   0.06000    1.000000    
    347 H2    c    0.877055 *  0.451485 *  0.770797 *   0.06000    1.000000    
    348 H2    c    0.992875 *  0.350908 *  0.746614 *   0.06000    1.000000    
    349 H2    c    0.925212 *  0.384393 *  0.669122 *   0.06000    1.000000    
    350 H2    c    0.891970 *  0.135085 *  0.627712 *   0.06000    1.000000    
    351 H2    c    0.910198 *  0.112120 *  0.714335 *   0.06000    1.000000    
    352 H2    c    0.010004 *  0.113683 *  0.670806 *   0.06000    1.000000    
    353 H1    c    0.413867 *  0.392990 *  0.356923 *   0.11500    1.000000    
    354 H1    c    0.469344 *  0.269869 *  0.486965 *   0.11500    1.000000    
    355 C2    c    0.515983 *  0.410304 *  0.431427 *  -0.11500    1.000000    
    356 C2    c    0.540437 *  0.356799 *  0.488758 *  -0.11500    1.000000    
    357 C2    c    0.621268 *  0.371288 *  0.547992 *  -0.11500    1.000000    
    358 C2    c    0.677320 *  0.440964 *  0.550002 *  -0.11500    1.000000    
    359 C2    c    0.652212 *  0.495070 *  0.492671 *  -0.11500    1.000000    
    360 C2    c    0.572260 *  0.479560 *  0.433057 *  -0.11500    1.000000    
    361 H1    c    0.637502 *  0.336299 *  0.590596 *   0.11500    1.000000    
    362 H1    c    0.730878 *  0.452387 *  0.593694 *   0.11500    1.000000    
    363 H1    c    0.694216 *  0.549898 *  0.495823 *   0.11500    1.000000    
    364 H1    c    0.551400 *  0.520320 *  0.390126 *   0.11500    1.000000    
    365 H1    c    0.586116 *  0.607010 *  0.643091 *   0.11500    1.000000    
    366 H1    c    0.530639 *  0.730131 *  0.513049 *   0.11500    1.000000    
    367 C2    c    0.484000 *  0.589696 *  0.568588 *  -0.11500    1.000000    
    368 C2    c    0.459546 *  0.643201 *  0.511256 *  -0.11500    1.000000    
    369 C2    c    0.378715 *  0.628712 *  0.452022 *  -0.11500    1.000000    
    370 C2    c    0.322663 *  0.559036 *  0.450012 *  -0.11500    1.000000    
    371 C2    c    0.347771 *  0.504930 *  0.507343 *  -0.11500    1.000000    
    372 C2    c    0.427723 *  0.520440 *  0.566957 *  -0.11500    1.000000    
    373 H1    c    0.362481 *  0.663701 *  0.409418 *   0.11500    1.000000    
    374 H1    c    0.269105 *  0.547613 *  0.406320 *   0.11500    1.000000    
    375 H1    c    0.305767 *  0.450102 *  0.504191 *   0.11500    1.000000    
    376 H1    c    0.448583 *  0.479680 *  0.609888 *   0.11500    1.000000    
    377 H1    c    0.086124 *  0.892990 *  0.143084 *   0.11500    1.000000    
    378 H1    c    0.030647 *  0.769869 *  0.013042 *   0.11500    1.000000    
    379 C2    c    0.984009 *  0.910304 *  0.068580 *  -0.11500    1.000000    
    380 C2    c    0.959554 *  0.856799 *  0.011249 *  -0.11500    1.000000    
    381 C2    c    0.878724 *  0.871288 *  0.952015 *  -0.11500    1.000000    
    382 C2    c    0.822671 *  0.940964 *  0.950005 *  -0.11500    1.000000    
    383 C2    c    0.847780 *  0.995070 *  0.007336 *  -0.11500    1.000000    
    384 C2    c    0.927732 *  0.979560 *  0.066950 *  -0.11500    1.000000    
    385 H1    c    0.862490 *  0.836299 *  0.909411 *   0.11500    1.000000    
    386 H1    c    0.769113 *  0.952387 *  0.906313 *   0.11500    1.000000    
    387 H1    c    0.805775 *  0.049898 *  0.004184 *   0.11500    1.000000    
    388 H1    c    0.948592 *  0.020320 *  0.109881 *   0.11500    1.000000    
    389 H1    c    0.913859 *  0.107010 *  0.856930 *   0.11500    1.000000    
    390 H1    c    0.969336 *  0.230131 *  0.986972 *   0.11500    1.000000    
    391 C2    c    0.015974 *  0.089696 *  0.931434 *  -0.11500    1.000000    
    392 C2    c    0.040429 *  0.143201 *  0.988765 *  -0.11500    1.000000    
    393 C2    c    0.121259 *  0.128712 *  0.047999 *  -0.11500    1.000000    
    394 C2    c    0.177312 *  0.059036 *  0.050009 *  -0.11500    1.000000    
    395 C2    c    0.152203 *  0.004930 *  0.992678 *  -0.11500    1.000000    
    396 C2    c    0.072251 *  0.020440 *  0.933064 *  -0.11500    1.000000    
    397 H1    c    0.137493 *  0.163701 *  0.090603 *   0.11500    1.000000    
    398 H1    c    0.230870 *  0.047613 *  0.093701 *   0.11500    1.000000    
    399 H1    c    0.194208 *  0.950102 *  0.995830 *   0.11500    1.000000    
    400 H1    c    0.051391 *  0.979680 *  0.890133 *   0.11500    1.000000    
--------------------------------------------------------------------------------


  Brillouin zone sampling points :

--------------------------------------------------------------------------------
  Point number          x          y          z            Weight
--------------------------------------------------------------------------------
        1           0.000000   0.000000   0.000000         1.0000
--------------------------------------------------------------------------------


********************************************************************************
*  General input information                                                   *
********************************************************************************

  Species output for all configurations : 

--------------------------------------------------------------------------------
  Species    Type    Atomic    Atomic    Charge       Radii (Angs)     Library
                     Number     Mass       (e)     Cova   Ionic  VDW   Symbol
--------------------------------------------------------------------------------
    C1       Core        6      12.01   0.000000   0.770  0.000  1.530          
    C7       Core        6      12.01  -0.030000   0.770  0.000  1.530          
    C3       Core        6      12.01   0.000000   0.770  0.000  1.530          
    C2       Core        6      12.01  -0.115000   0.770  0.000  1.530          
    O1       Core        8      16.00  -0.500000   0.730  0.000  1.360          
    O2       Core        8      16.00  -0.170000   0.730  0.000  1.360          
    C5       Core        6      12.01  -0.120000   0.770  0.000  1.530          
    C4       Core        6      12.01   0.700000   0.770  0.000  1.530          
    C6       Core        6      12.01  -0.180000   0.770  0.000  1.530          
    H1       Core        1       1.01   0.115000   0.370  0.000  1.080          
    H2       Core        1       1.01   0.060000   0.370  0.000  1.080          
--------------------------------------------------------------------------------


  Lattice summation method = Wolf et al

  Modified method - smoothed energy only / correct forces

  Eta    =     0.223000 Angstrom**-1
  Cutoff =    12.000000 Angstrom

  Time limit = Infinity

  Maximum range for interatomic potentials =    100000.000000 Angstroms

  General interatomic potentials :

--------------------------------------------------------------------------------
Atom  Types   Potential         A         B         C         D     Cutoffs(Ang)
  1     2                                                            Min    Max 
--------------------------------------------------------------------------------
C2   c C2   c Lenn/es 12  6 0.700E-01  3.55      0.00      0.00     0.000 12.000
C2   c C3   c Lenn/es 12  6 0.700E-01  3.55      0.00      0.00     0.000 12.000
C3   c C3   c Lenn/es 12  6 0.700E-01  3.55      0.00      0.00     0.000 12.000
C2   c C4   c Lenn/es 12  6 0.857E-01  3.65      0.00      0.00     0.000 12.000
C3   c C4   c Lenn/es 12  6 0.857E-01  3.65      0.00      0.00     0.000 12.000
C4   c C4   c Lenn/es 12  6 0.105      3.75      0.00      0.00     0.000 12.000
C2   c C5   c Lenn/es 12  6 0.680E-01  3.52      0.00      0.00     0.000 12.000
C3   c C5   c Lenn/es 12  6 0.680E-01  3.52      0.00      0.00     0.000 12.000
C4   c C5   c Lenn/es 12  6 0.832E-01  3.62      0.00      0.00     0.000 12.000
C5   c C5   c Lenn/es 12  6 0.660E-01  3.50      0.00      0.00     0.000 12.000
C2   c C6   c Lenn/es 12  6 0.680E-01  3.52      0.00      0.00     0.000 12.000
C3   c C6   c Lenn/es 12  6 0.680E-01  3.52      0.00      0.00     0.000 12.000
C4   c C6   c Lenn/es 12  6 0.832E-01  3.62      0.00      0.00     0.000 12.000
C5   c C6   c Lenn/es 12  6 0.660E-01  3.50      0.00      0.00     0.000 12.000
C6   c C6   c Lenn/es 12  6 0.660E-01  3.50      0.00      0.00     0.000 12.000
C2   c C7   c Lenn/es 12  6 0.680E-01  3.52      0.00      0.00     0.000 12.000
C3   c C7   c Lenn/es 12  6 0.680E-01  3.52      0.00      0.00     0.000 12.000
C4   c C7   c Lenn/es 12  6 0.832E-01  3.62      0.00      0.00     0.000 12.000
C5   c C7   c Lenn/es 12  6 0.660E-01  3.50      0.00      0.00     0.000 12.000
C6   c C7   c Lenn/es 12  6 0.660E-01  3.50      0.00      0.00     0.000 12.000
C7   c C7   c Lenn/es 12  6 0.660E-01  3.50      0.00      0.00     0.000 12.000
C2   c O1   c Lenn/es 12  6 0.121      3.24      0.00      0.00     0.000 12.000
C3   c O1   c Lenn/es 12  6 0.121      3.24      0.00      0.00     0.000 12.000
C4   c O1   c Lenn/es 12  6 0.148      3.33      0.00      0.00     0.000 12.000
C5   c O1   c Lenn/es 12  6 0.118      3.22      0.00      0.00     0.000 12.000
C6   c O1   c Lenn/es 12  6 0.118      3.22      0.00      0.00     0.000 12.000
C7   c O1   c Lenn/es 12  6 0.118      3.22      0.00      0.00     0.000 12.000
O1   c O1   c Lenn/es 12  6 0.210      2.96      0.00      0.00     0.000 12.000
C2   c O2   c Lenn/es 12  6 0.990E-01  3.21      0.00      0.00     0.000 12.000
C3   c O2   c Lenn/es 12  6 0.990E-01  3.21      0.00      0.00     0.000 12.000
C4   c O2   c Lenn/es 12  6 0.121      3.30      0.00      0.00     0.000 12.000
C5   c O2   c Lenn/es 12  6 0.961E-01  3.19      0.00      0.00     0.000 12.000
C6   c O2   c Lenn/es 12  6 0.961E-01  3.19      0.00      0.00     0.000 12.000
C7   c O2   c Lenn/es 12  6 0.961E-01  3.19      0.00      0.00     0.000 12.000
O1   c O2   c Lenn/es 12  6 0.171      2.93      0.00      0.00     0.000 12.000
O2   c O2   c Lenn/es 12  6 0.140      2.90      0.00      0.00     0.000 12.000
H1   c C2   c Lenn/es 12  6 0.458E-01  2.93      0.00      0.00     0.000 12.000
H1   c C3   c Lenn/es 12  6 0.458E-01  2.93      0.00      0.00     0.000 12.000
H1   c C4   c Lenn/es 12  6 0.561E-01  3.01      0.00      0.00     0.000 12.000
H1   c C5   c Lenn/es 12  6 0.445E-01  2.91      0.00      0.00     0.000 12.000
H1   c C6   c Lenn/es 12  6 0.445E-01  2.91      0.00      0.00     0.000 12.000
H1   c C7   c Lenn/es 12  6 0.445E-01  2.91      0.00      0.00     0.000 12.000
H1   c O1   c Lenn/es 12  6 0.794E-01  2.68      0.00      0.00     0.000 12.000
H1   c O2   c Lenn/es 12  6 0.648E-01  2.65      0.00      0.00     0.000 12.000
H1   c H1   c Lenn/es 12  6 0.300E-01  2.42      0.00      0.00     0.000 12.000
H2   c C2   c Lenn/es 12  6 0.458E-01  2.98      0.00      0.00     0.000 12.000
H2   c C3   c Lenn/es 12  6 0.458E-01  2.98      0.00      0.00     0.000 12.000
H2   c C4   c Lenn/es 12  6 0.561E-01  3.06      0.00      0.00     0.000 12.000
H2   c C5   c Lenn/es 12  6 0.445E-01  2.96      0.00      0.00     0.000 12.000
H2   c C6   c Lenn/es 12  6 0.445E-01  2.96      0.00      0.00     0.000 12.000
H2   c C7   c Lenn/es 12  6 0.445E-01  2.96      0.00      0.00     0.000 12.000
H2   c O1   c Lenn/es 12  6 0.794E-01  2.72      0.00      0.00     0.000 12.000
H2   c O2   c Lenn/es 12  6 0.648E-01  2.69      0.00      0.00     0.000 12.000
H1   c H2   c Lenn/es 12  6 0.300E-01  2.46      0.00      0.00     0.000 12.000
H2   c H2   c Lenn/es 12  6 0.300E-01  2.50      0.00      0.00     0.000 12.000
C2   c C2   c Harmonic       40.7      1.40      0.00      0.00     0.000 1 Bond
                                                                    single      
C2   c C3   c Harmonic       40.7      1.40      0.00      0.00     0.000 1 Bond
                                                                    single      
C3   c C7   c Harmonic       27.5      1.51      0.00      0.00     0.000 1 Bond
                                                                    single      
H1   c C2   c Harmonic       31.8      1.08      0.00      0.00     0.000 1 Bond
                                                                    single      
C5   c C7   c Harmonic       23.2      1.53      0.00      0.00     0.000 1 Bond
                                                                    single      
C5   c C5   c Harmonic       23.2      1.53      0.00      0.00     0.000 1 Bond
                                                                    single      
C1   c C7   c Harmonic       27.5      1.51      0.00      0.00     0.000 1 Bond
                                                                    single      
C4   c C5   c Harmonic       27.5      1.51      0.00      0.00     0.000 1 Bond
                                                                    single      
C6   c O2   c Harmonic       27.8      1.41      0.00      0.00     0.000 1 Bond
                                                                    single      
H2   c C5   c Harmonic       29.5      1.09      0.00      0.00     0.000 1 Bond
                                                                    single      
H2   c C6   c Harmonic       29.5      1.09      0.00      0.00     0.000 1 Bond
                                                                    single      
C4   c O1   c Harmonic       45.1      1.23      0.00      0.00     0.000 1 Bond
                                                                    single      
C4   c O2   c Harmonic       18.6      1.33      0.00      0.00     0.000 1 Bond
                                                                    single      
--------------------------------------------------------------------------------

  General Three-body potentials :

  Cosine Harmonic form:

--------------------------------------------------------------------------------
Atom    Atom    Atom           Force Constants            Theta     Cutoffs  
  1       2       3               (eV)                    (deg)  1-2  1-3  2-3
--------------------------------------------------------------------------------
C2    c C2    c C2    c                  5.4639184       120.000     Bonded
C3    c C2    c C2    c                  5.4639184       120.000     Bonded
C2    c C3    c C7    c                  6.0710205       120.000     Bonded
C2    c H1    c C2    c                  3.0355102       120.000     Bonded
C3    c H1    c C2    c                  3.0355102       120.000     Bonded
C7    c C5    c C5    c                  5.0606292       112.700     Bonded
C5    c C5    c C5    c                  5.0606292       112.700     Bonded
C5    c C3    c C7    c                  5.4639184       114.000     Bonded
C5    c C1    c C7    c                  5.4639184       114.000     Bonded
C1    c C1    c C7    c                  3.4691546       109.500     Bonded
C5    c C4    c C5    c                  5.4639184       111.100     Bonded
C7    c H2    c C5    c                  3.2523324       110.700     Bonded
C5    c H2    c C5    c                  3.2523324       110.700     Bonded
C6    c H2    c C6    c                  3.2523324       110.700     Bonded
C4    c H2    c C5    c                  3.0355102       109.500     Bonded
O2    c H2    c C6    c                  3.0355102       109.500     Bonded
H2    c H2    c C5    c                  2.8620525       107.800     Bonded
C1    c C5    c C7    c                  5.4639184       111.100     Bonded
C1    c C3    c C7    c                  3.4691546       109.500     Bonded
C5    c C4    c O2    c                  7.0250380       111.400     Bonded
C5    c C4    c O1    c                  6.9383091       120.400     Bonded
O2    c C4    c O1    c                  7.1984957       123.400     Bonded
C4    c C6    c O2    c                  7.1984957       116.900     Bonded
C1    c C1    c C7    c                  6.0710205       120.000     Bonded
--------------------------------------------------------------------------------

  General Four-body potentials :

  Standard form:

--------------------------------------------------------------------------------
         Atom Types             Force cst Sign Phase Phi0         Cutoffs
   1       2       3       4       (eV)                     1-2  2-3  3-4  4-1
--------------------------------------------------------------------------------
H1    c C2    c C2    c H1    c  0.3144     -   2     0.00  1.70 1.70 1.70 1.70
H1    c C2    c C2    c C2    c  0.3144     -   2     0.00  1.70 1.70 1.70 1.70
H1    c C2    c C2    c C3    c  0.3144     -   2     0.00  1.70 1.70 1.70 1.70
H1    c C2    c C3    c C7    c  0.3144     -   2     0.00  1.70 1.70 1.70 1.70
C7    c C5    c C5    c C5    c  0.2819E-01 +   1     0.00  1.70 1.70 1.70 1.70
C7    c C5    c C5    c C5    c  -.1084E-02 -   2     0.00  1.70 1.70 1.70 1.70
C7    c C5    c C5    c C5    c  0.4336E-02 +   3     0.00  1.70 1.70 1.70 1.70
C5    c C5    c C5    c H2    c  0.6505E-02 +   3     0.00  1.70 1.70 1.70 1.70
C7    c C5    c C5    c H2    c  0.6505E-02 +   3     0.00  1.70 1.70 1.70 1.70
H2    c C5    c C5    c H2    c  0.6505E-02 +   3     0.00  1.70 1.70 1.70 1.70
O1    c C4    c C5    c C5    c  -.6006E-02 +   1     0.00  1.70 1.70 1.70 1.70
O1    c C4    c C5    c C5    c  0.2663E-01 -   2     0.00  1.70 1.70 1.70 1.70
O1    c C4    c C5    c C5    c  -.1505E-01 +   3     0.00  1.70 1.70 1.70 1.70
O2    c C4    c C5    c C5    c  -.1199E-01 -   2     0.00  1.70 1.70 1.70 1.70
O2    c C4    c C5    c H2    c  0.2862E-02 -   2     0.00  1.70 1.70 1.70 1.70
C5    c C4    c O2    c C6    c  0.1012     +   1     0.00  1.70 1.70 1.70 1.70
C5    c C4    c O2    c C6    c  0.1111     -   2     0.00  1.70 1.70 1.70 1.70
O1    c C4    c O2    c C6    c  0.1111     -   2     0.00  1.70 1.70 1.70 1.70
C4    c O2    c C6    c H2    c  0.4293E-02 +   3     0.00  1.70 1.70 1.70 1.70
C1    c C7    c C5    c C5    c  0.2819E-01 +   1     0.00  1.70 1.70 1.70 1.70
C1    c C7    c C5    c C5    c  -.1084E-02 -   2     0.00  1.70 1.70 1.70 1.70
C1    c C7    c C5    c C5    c  0.4336E-02 +   3     0.00  1.70 1.70 1.70 1.70
C1    c C7    c C5    c H2    c  0.6505E-02 +   3     0.00  1.70 1.70 1.70 1.70
C1    c C1    c C7    c C3    c  0.3144     -   2     0.00  1.70 1.70 1.70 1.70
C1    c C1    c C7    c C5    c  0.3144     -   2     0.00  1.70 1.70 1.70 1.70
--------------------------------------------------------------------------------

  Bond-order two-body potentials :

--------------------------------------------------------------------------------
Atom  Types                 A                 B                  Cutoffs(Ang)   
  1     2                 ZetaA             ZetaB                Taper    Max   
--------------------------------------------------------------------------------
C1   c C1   c          1393.6000000000       346.7000000000     1.8000   2.1000
                          3.487900000          2.211900000    
--------------------------------------------------------------------------------

  Bond-order repulsive :

--------------------------------------------------------------------------------
Atom    Type         Alpha            N             Lambda          M           
 1/2     1/2                                                                    
--------------------------------------------------------------------------------
C1   c             0.00000000       0.72751000       2.21190000       3
C1   c
--------------------------------------------------------------------------------

  Bond-order attractive :

--------------------------------------------------------------------------------
Atom    Type         Alpha            N             Lambda          M           
 1/2     1/2           C              D                H                        
--------------------------------------------------------------------------------
C1   c  Theta       0.00000016       0.72751000       2.21190000       3
C1   c          38049.00000000       4.38400000      -0.57058000
--------------------------------------------------------------------------------

********************************************************************************
*  Output for configuration   1                                                *
********************************************************************************


  Components of energy : 

--------------------------------------------------------------------------------
  Interatomic potentials     =     6393853.83577107 eV
  Three-body potentials      =           0.00000000 eV
  Four-body potentials       =           0.00000000 eV
  Out of plane potentials    =           0.00000000 eV
  Bond-order potentials      =       -1592.22723066 eV
  Monopole - monopole (real) =         -20.63758270 eV
  Monopole - monopole (recip)=           0.00000000 eV
  Monopole - monopole (total)=         -20.63758270 eV
  Wolf sum self energy       =          -8.47010716 eV
--------------------------------------------------------------------------------
  Total lattice energy       =     6392232.50085056 eV
--------------------------------------------------------------------------------
  Total lattice energy       =       616752722.1092 kJ/(mole unit cells)
--------------------------------------------------------------------------------


  Number of variables =     1197

  Maximum number of calculations  =          1000
  Maximum Hessian update interval =            10
  Maximum step size               =   1.000000000
  Maximum parameter tolerance     =   0.000010000
  Maximum function  tolerance     =   0.000010000
  Maximum gradient  tolerance     =   0.001000000
  Maximum gradient  component     =   0.010000000

  Symmetry not applied to optimisation

  Newton-Raphson optimiser to be used

  BFGS hessian update to be used

  Start of bulk optimisation :

  Cycle:      0 Energy:   6392232.500851  Gnorm: 125626.933850  CPU:    0.684
  ** Hessian calculated **
  Cycle:      1 Energy:   2323188.673133  Gnorm:  48913.675455  CPU:    6.492
  ** Hessian calculated **
  Cycle:      2 Energy:   2295731.499314  Gnorm:  48877.416152  CPU:   12.324
  ** Hessian calculated **
  Cycle:      3 Energy:   1317143.153903  Gnorm:  36672.370920  CPU:   18.104
  ** Hessian calculated **
  Cycle:      4 Energy:    627159.570977  Gnorm:   9247.920286  CPU:   24.196
  ** Hessian calculated **
  Cycle:      5 Energy:    210156.431620  Gnorm:   3150.960121  CPU:   30.132
  ** Hessian calculated **
  Cycle:      6 Energy:    104098.771819  Gnorm:   1446.710389  CPU:   35.720
  ** Hessian calculated **
  Cycle:      7 Energy:     67924.917053  Gnorm:   1226.171196  CPU:   40.976
  ** Hessian calculated **
  Cycle:      8 Energy:     35792.660483  Gnorm:    489.868340  CPU:   46.808
  ** Hessian calculated **
  Cycle:      9 Energy:     35792.660483  Gnorm:    489.868340  CPU:   52.688
  ** Hessian calculated **
  Cycle:     10 Energy:     21194.056850  Gnorm:    249.199087  CPU:   58.096
  ** Hessian calculated **
  Cycle:     11 Energy:     11477.691835  Gnorm:    215.355792  CPU:   63.944
  ** Hessian calculated **
  Cycle:     12 Energy:      6012.908867  Gnorm:    150.681030  CPU:   69.324
  ** Hessian calculated **
  Cycle:     13 Energy:      2708.067616  Gnorm:     51.513722  CPU:   74.680
  ** Hessian calculated **
  Cycle:     14 Energy:      2049.171891  Gnorm:     38.631016  CPU:   80.516
  ** Hessian calculated **
  Cycle:     15 Energy:      2048.383861  Gnorm:     38.619168  CPU:   86.416
  ** Hessian calculated **
  Cycle:     16 Energy:      1813.324246  Gnorm:     35.291479  CPU:   92.312
  ** Hessian calculated **
  Cycle:     17 Energy:      1307.092840  Gnorm:     29.704512  CPU:   98.236
  ** Hessian calculated **
  Cycle:     18 Energy:      -674.894349  Gnorm:      8.731883  CPU:  103.908
  ** Hessian calculated **
  Cycle:     19 Energy:      -818.874338  Gnorm:      6.321271  CPU:  109.828
  ** Hessian calculated **
  Cycle:     20 Energy:      -869.245595  Gnorm:      5.730953  CPU:  115.740
  ** Hessian calculated **
  Cycle:     21 Energy:     -1086.668874  Gnorm:      4.918310  CPU:  121.664
  ** Hessian calculated **
  Cycle:     22 Energy:     -1090.571819  Gnorm:      7.376510  CPU:  127.548
  ** Hessian calculated **
  Cycle:     23 Energy:     -1247.226827  Gnorm:      4.439037  CPU:  133.388
  ** Hessian calculated **
  Cycle:     24 Energy:     -1257.437792  Gnorm:      3.931631  CPU:  139.488
  ** Hessian calculated **
  Cycle:     25 Energy:     -1322.060802  Gnorm:      2.391176  CPU:  144.772
  ** Hessian calculated **
  Cycle:     26 Energy:     -1436.869971  Gnorm:      2.068910  CPU:  150.336
  ** Hessian calculated **
  Cycle:     27 Energy:     -1474.757696  Gnorm:      1.131963  CPU:  155.188
  ** Hessian calculated **
  Cycle:     28 Energy:     -1498.984861  Gnorm:      0.960880  CPU:  161.020
  ** Hessian calculated **
  Cycle:     29 Energy:     -1548.703994  Gnorm:      0.896668  CPU:  166.468
  ** Hessian calculated **
  Cycle:     30 Energy:     -1559.871421  Gnorm:      0.821981  CPU:  172.156
  ** Hessian calculated **
  Cycle:     31 Energy:     -1566.343765  Gnorm:      0.672510  CPU:  176.984
  ** Hessian calculated **
  Cycle:     32 Energy:     -1607.174203  Gnorm:      0.560103  CPU:  182.236
  ** Hessian calculated **
  Cycle:     33 Energy:     -1607.421701  Gnorm:      0.554621  CPU:  187.088
  ** Hessian calculated **
  Cycle:     34 Energy:     -1612.353275  Gnorm:      0.380593  CPU:  192.400
  Cycle:     35 Energy:     -1631.397046  Gnorm:      0.336692  CPU:  194.108
  ** Hessian calculated **
  Cycle:     36 Energy:     -1639.027200  Gnorm:      0.207941  CPU:  199.488
  Cycle:     37 Energy:     -1645.051149  Gnorm:      0.204010  CPU:  200.704
  Cycle:     38 Energy:     -1647.507118  Gnorm:      0.196819  CPU:  201.684
  Cycle:     39 Energy:     -1653.542868  Gnorm:      0.202662  CPU:  203.128
  Cycle:     40 Energy:     -1658.628060  Gnorm:      0.161010  CPU:  204.336
  Cycle:     41 Energy:     -1661.174625  Gnorm:      0.136986  CPU:  205.308
  Cycle:     42 Energy:     -1665.068164  Gnorm:      0.134581  CPU:  206.520
  Cycle:     43 Energy:     -1666.319175  Gnorm:      0.128816  CPU:  207.500
  Cycle:     44 Energy:     -1669.642557  Gnorm:      0.103235  CPU:  208.720
  Cycle:     45 Energy:     -1671.879689  Gnorm:      0.104085  CPU:  209.708
  ** Hessian calculated **
  Cycle:     46 Energy:     -1674.353760  Gnorm:      0.069137  CPU:  214.444
  Cycle:     47 Energy:     -1675.126172  Gnorm:      0.065304  CPU:  215.576
  Cycle:     48 Energy:     -1677.068458  Gnorm:      0.064697  CPU:  216.824
  Cycle:     49 Energy:     -1678.450677  Gnorm:      0.073753  CPU:  218.080
  Cycle:     50 Energy:     -1680.462987  Gnorm:      0.070795  CPU:  219.340
  Cycle:     51 Energy:     -1682.082650  Gnorm:      0.061474  CPU:  220.376
  Cycle:     52 Energy:     -1683.254307  Gnorm:      0.056573  CPU:  221.400
  Cycle:     53 Energy:     -1684.043110  Gnorm:      0.050506  CPU:  222.420
  Cycle:     54 Energy:     -1685.130799  Gnorm:      0.049064  CPU:  223.688
  Cycle:     55 Energy:     -1686.192507  Gnorm:      0.045071  CPU:  224.940
  ** Hessian calculated **
  Cycle:     56 Energy:     -1687.262838  Gnorm:      0.034347  CPU:  229.540
  Cycle:     57 Energy:     -1688.195111  Gnorm:      0.037533  CPU:  230.784
  Cycle:     58 Energy:     -1689.196602  Gnorm:      0.033714  CPU:  232.032
  Cycle:     59 Energy:     -1689.990719  Gnorm:      0.033910  CPU:  233.032
  Cycle:     60 Energy:     -1690.488512  Gnorm:      0.030102  CPU:  234.036
  Cycle:     61 Energy:     -1690.984474  Gnorm:      0.027686  CPU:  235.276
  Cycle:     62 Energy:     -1691.339303  Gnorm:      0.027012  CPU:  236.320
  Cycle:     63 Energy:     -1691.740189  Gnorm:      0.024041  CPU:  237.720
  Cycle:     64 Energy:     -1692.109611  Gnorm:      0.020100  CPU:  238.976
  Cycle:     65 Energy:     -1692.405519  Gnorm:      0.018973  CPU:  239.972
  ** Hessian calculated **
  Cycle:     66 Energy:     -1692.574796  Gnorm:      0.018427  CPU:  245.192
  ** Hessian calculated **
  Cycle:     67 Energy:     -1692.800518  Gnorm:      0.014590  CPU:  249.708
  Cycle:     68 Energy:     -1693.009278  Gnorm:      0.014869  CPU:  250.932
  Cycle:     69 Energy:     -1693.237035  Gnorm:      0.015323  CPU:  252.168
  Cycle:     70 Energy:     -1693.544731  Gnorm:      0.017456  CPU:  253.408
  Cycle:     71 Energy:     -1693.798925  Gnorm:      0.020505  CPU:  254.404
  Cycle:     72 Energy:     -1694.014458  Gnorm:      0.017808  CPU:  255.400
  Cycle:     73 Energy:     -1694.340902  Gnorm:      0.019217  CPU:  256.640
  Cycle:     74 Energy:     -1694.613761  Gnorm:      0.017899  CPU:  257.632
  Cycle:     75 Energy:     -1694.951415  Gnorm:      0.017491  CPU:  258.884
  Cycle:     76 Energy:     -1695.215862  Gnorm:      0.017187  CPU:  260.140
  ** Hessian calculated **
  Cycle:     77 Energy:     -1695.440200  Gnorm:      0.012799  CPU:  264.652
  Cycle:     78 Energy:     -1695.626365  Gnorm:      0.013272  CPU:  265.896
  Cycle:     79 Energy:     -1695.868136  Gnorm:      0.014477  CPU:  267.148
  Cycle:     80 Energy:     -1696.023691  Gnorm:      0.013711  CPU:  268.148
  Cycle:     81 Energy:     -1696.176804  Gnorm:      0.011692  CPU:  269.156
  Cycle:     82 Energy:     -1696.358834  Gnorm:      0.012335  CPU:  270.412
  Cycle:     83 Energy:     -1696.521470  Gnorm:      0.011977  CPU:  271.424
  Cycle:     84 Energy:     -1696.662617  Gnorm:      0.012384  CPU:  272.488
  Cycle:     85 Energy:     -1696.789093  Gnorm:      0.010901  CPU:  274.044
  Cycle:     86 Energy:     -1696.915556  Gnorm:      0.011484  CPU:  275.364
  ** Hessian calculated **
  Cycle:     87 Energy:     -1697.004015  Gnorm:      0.007697  CPU:  279.940
  Cycle:     88 Energy:     -1697.080432  Gnorm:      0.008036  CPU:  281.228
  Cycle:     89 Energy:     -1697.171626  Gnorm:      0.009271  CPU:  282.524
  Cycle:     90 Energy:     -1697.279594  Gnorm:      0.009839  CPU:  283.784
  Cycle:     91 Energy:     -1697.380074  Gnorm:      0.009844  CPU:  285.044
  Cycle:     92 Energy:     -1697.482398  Gnorm:      0.010220  CPU:  286.056
  Cycle:     93 Energy:     -1697.574176  Gnorm:      0.009631  CPU:  287.068
  Cycle:     94 Energy:     -1697.651407  Gnorm:      0.007927  CPU:  288.316
  Cycle:     95 Energy:     -1697.708115  Gnorm:      0.007644  CPU:  289.564
  Cycle:     96 Energy:     -1697.771718  Gnorm:      0.008285  CPU:  290.880
  ** Hessian calculated **
  Cycle:     97 Energy:     -1697.814026  Gnorm:      0.005832  CPU:  295.608
  Cycle:     98 Energy:     -1697.850767  Gnorm:      0.005508  CPU:  297.108
  Cycle:     99 Energy:     -1697.895920  Gnorm:      0.006842  CPU:  298.588
  Cycle:    100 Energy:     -1697.948547  Gnorm:      0.007202  CPU:  299.868
  Cycle:    101 Energy:     -1698.008583  Gnorm:      0.007532  CPU:  301.248
  Cycle:    102 Energy:     -1698.062096  Gnorm:      0.006918  CPU:  302.436
  Cycle:    103 Energy:     -1698.109602  Gnorm:      0.006674  CPU:  304.024
  Cycle:    104 Energy:     -1698.156635  Gnorm:      0.006395  CPU:  305.444
  Cycle:    105 Energy:     -1698.204851  Gnorm:      0.006732  CPU:  306.700
  Cycle:    106 Energy:     -1698.249072  Gnorm:      0.005406  CPU:  307.720
  ** Hessian calculated **
  Cycle:    107 Energy:     -1698.282295  Gnorm:      0.006685  CPU:  312.444
  ** Hessian calculated **
  Cycle:    108 Energy:     -1698.349252  Gnorm:      0.006705  CPU:  317.448
  Cycle:    109 Energy:     -1698.369278  Gnorm:      0.006747  CPU:  318.456
  ** Hessian calculated **
  Cycle:    110 Energy:     -1698.399179  Gnorm:      0.003670  CPU:  323.064
  Cycle:    111 Energy:     -1698.415675  Gnorm:      0.003564  CPU:  324.576
  Cycle:    112 Energy:     -1698.425639  Gnorm:      0.005184  CPU:  325.720
  Cycle:    113 Energy:     -1698.441812  Gnorm:      0.003329  CPU:  326.748
  Cycle:    114 Energy:     -1698.456218  Gnorm:      0.003609  CPU:  327.988
  Cycle:    115 Energy:     -1698.485591  Gnorm:      0.005526  CPU:  329.716
  Cycle:    116 Energy:     -1698.517256  Gnorm:      0.005456  CPU:  330.968
  Cycle:    117 Energy:     -1698.569948  Gnorm:      0.005856  CPU:  331.964
  Cycle:    118 Energy:     -1698.611779  Gnorm:      0.008381  CPU:  332.964
  Cycle:    119 Energy:     -1698.645018  Gnorm:      0.005203  CPU:  334.200
  ** Hessian calculated **
  Cycle:    120 Energy:     -1698.687974  Gnorm:      0.005613  CPU:  339.188
  ** Hessian calculated **
  Cycle:    121 Energy:     -1698.713364  Gnorm:      0.004544  CPU:  343.692
  Cycle:    122 Energy:     -1698.735494  Gnorm:      0.004451  CPU:  344.952
  Cycle:    123 Energy:     -1698.755465  Gnorm:      0.003802  CPU:  346.240
  Cycle:    124 Energy:     -1698.774878  Gnorm:      0.004429  CPU:  347.508
  Cycle:    125 Energy:     -1698.791812  Gnorm:      0.003825  CPU:  348.528
  Cycle:    126 Energy:     -1698.804783  Gnorm:      0.004322  CPU:  349.540
  Cycle:    127 Energy:     -1698.815698  Gnorm:      0.004313  CPU:  350.568
  Cycle:    128 Energy:     -1698.826436  Gnorm:      0.006960  CPU:  351.844
  Cycle:    129 Energy:     -1698.835638  Gnorm:      0.006399  CPU:  352.844
  Cycle:    130 Energy:     -1698.847083  Gnorm:      0.003445  CPU:  354.088
  ** Hessian calculated **
  Cycle:    131 Energy:     -1698.859490  Gnorm:      0.003958  CPU:  359.040
  ** Hessian calculated **
  Cycle:    132 Energy:     -1698.867068  Gnorm:      0.005707  CPU:  363.528
  Cycle:    133 Energy:     -1698.874678  Gnorm:      0.004186  CPU:  364.904
  Cycle:    134 Energy:     -1698.879910  Gnorm:      0.004344  CPU:  366.244
  Cycle:    135 Energy:     -1698.886815  Gnorm:      0.007777  CPU:  367.504
  Cycle:    136 Energy:     -1698.896757  Gnorm:      0.002452  CPU:  369.028
  Cycle:    137 Energy:     -1698.909313  Gnorm:      0.004582  CPU:  370.268
  Cycle:    138 Energy:     -1698.928545  Gnorm:      0.010104  CPU:  371.264
  Cycle:    139 Energy:     -1698.952213  Gnorm:      0.004476  CPU:  372.512
  Cycle:    140 Energy:     -1698.971137  Gnorm:      0.004185  CPU:  373.748
  Cycle:    141 Energy:     -1698.990587  Gnorm:      0.008214  CPU:  374.740
  ** Hessian calculated **
  Cycle:    142 Energy:     -1699.003042  Gnorm:      0.006333  CPU:  379.180
  Cycle:    143 Energy:     -1699.013316  Gnorm:      0.004732  CPU:  380.432
  Cycle:    144 Energy:     -1699.024293  Gnorm:      0.002808  CPU:  381.672
  Cycle:    145 Energy:     -1699.037950  Gnorm:      0.003985  CPU:  382.928
  Cycle:    146 Energy:     -1699.055145  Gnorm:      0.004737  CPU:  384.184
  Cycle:    147 Energy:     -1699.071643  Gnorm:      0.006276  CPU:  385.436
  Cycle:    148 Energy:     -1699.085239  Gnorm:      0.005913  CPU:  386.436
  Cycle:    149 Energy:     -1699.098170  Gnorm:      0.004843  CPU:  387.440
  Cycle:    150 Energy:     -1699.110645  Gnorm:      0.004394  CPU:  388.672
  Cycle:    151 Energy:     -1699.122696  Gnorm:      0.003014  CPU:  389.664
  ** Hessian calculated **
  Cycle:    152 Energy:     -1699.131251  Gnorm:      0.003198  CPU:  394.600
  ** Hessian calculated **
  Cycle:    153 Energy:     -1699.138261  Gnorm:      0.002359  CPU:  399.072
  Cycle:    154 Energy:     -1699.143972  Gnorm:      0.001737  CPU:  400.312
  Cycle:    155 Energy:     -1699.146162  Gnorm:      0.001378  CPU:  401.316
  Cycle:    156 Energy:     -1699.152647  Gnorm:      0.002206  CPU:  403.032
  Cycle:    157 Energy:     -1699.157969  Gnorm:      0.002396  CPU:  404.028
  Cycle:    158 Energy:     -1699.165037  Gnorm:      0.003214  CPU:  405.264
  Cycle:    159 Energy:     -1699.170504  Gnorm:      0.004875  CPU:  406.524
  Cycle:    160 Energy:     -1699.175396  Gnorm:      0.006047  CPU:  407.536
  Cycle:    161 Energy:     -1699.178012  Gnorm:      0.003106  CPU:  408.540
  Cycle:    162 Energy:     -1699.179710  Gnorm:      0.001131  CPU:  409.588
  ** Hessian calculated **
  Cycle:    163 Energy:     -1699.181229  Gnorm:      0.001373  CPU:  414.372
  Cycle:    164 Energy:     -1699.182088  Gnorm:      0.001821  CPU:  416.124
  Cycle:    165 Energy:     -1699.182920  Gnorm:      0.001333  CPU:  417.168
  Cycle:    166 Energy:     -1699.183013  Gnorm:      0.001261  CPU:  418.176
  Cycle:    167 Energy:     -1699.183037  Gnorm:      0.001265  CPU:  419.292
  Cycle:    168 Energy:     -1699.185479  Gnorm:      0.001868  CPU:  420.556
  Cycle:    169 Energy:     -1699.185970  Gnorm:      0.001062  CPU:  422.312
  Cycle:    170 Energy:     -1699.185990  Gnorm:      0.001005  CPU:  423.340
  Cycle:    171 Energy:     -1699.186690  Gnorm:      0.000591  CPU:  424.604
  Cycle:    172 Energy:     -1699.187080  Gnorm:      0.001954  CPU:  425.876
  ** Hessian calculated **
  Cycle:    173 Energy:     -1699.187466  Gnorm:      0.000620  CPU:  430.340
  Cycle:    174 Energy:     -1699.188522  Gnorm:      0.001118  CPU:  432.068
  Cycle:    175 Energy:     -1699.189168  Gnorm:      0.000641  CPU:  433.064
  Cycle:    176 Energy:     -1699.189239  Gnorm:      0.000635  CPU:  434.308
  Cycle:    177 Energy:     -1699.189239  Gnorm:      0.000635  CPU:  435.312
  ** Hessian calculated **
  Cycle:    178 Energy:     -1699.190743  Gnorm:      0.000586  CPU:  440.256
  ** Hessian calculated **
  Cycle:    179 Energy:     -1699.193243  Gnorm:      0.000533  CPU:  445.516
  ** Hessian calculated **
  Cycle:    180 Energy:     -1699.193351  Gnorm:      0.000283  CPU:  450.028
  Cycle:    181 Energy:     -1699.193446  Gnorm:      0.000229  CPU:  451.036
  Cycle:    182 Energy:     -1699.193446  Gnorm:      0.000229  CPU:  452.040
  ** Hessian calculated **
  Cycle:    183 Energy:     -1699.193446  Gnorm:      0.000229  CPU:  456.532
  ** Hessian calculated **

  XYZ File written as gulp.xyz                                



  **** Optimisation achieved ****


  Final energy =   -1699.19344573 eV
  Final Gnorm  =       0.00022869

  Components of energy : 

--------------------------------------------------------------------------------
  Interatomic potentials     =         -67.06134708 eV
  Three-body potentials      =           0.00000000 eV
  Four-body potentials       =           0.00000000 eV
  Out of plane potentials    =           0.00000000 eV
  Bond-order potentials      =       -1619.77714311 eV
  Monopole - monopole (real) =          -3.88484838 eV
  Monopole - monopole (recip)=           0.00000000 eV
  Monopole - monopole (total)=          -3.88484838 eV
  Wolf sum self energy       =          -8.47010716 eV
--------------------------------------------------------------------------------
  Total lattice energy       =       -1699.19344573 eV
--------------------------------------------------------------------------------
  Total lattice energy       =         -163946.1930 kJ/(mole unit cells)
--------------------------------------------------------------------------------

  Final fractional coordinates of atoms :

--------------------------------------------------------------------------------
   No.  Atomic        x           y          z          Radius
        Label       (Frac)      (Frac)     (Frac)       (Angs) 
--------------------------------------------------------------------------------
     1  C1    c     0.215559    0.184381    0.392082    0.000000
     2  C1    c     0.170834    0.132131    0.330460    0.000000
     3  C1    c     0.097530    0.067804    0.337697    0.000000
     4  C1    c     0.070815    0.057496    0.406312    0.000000
     5  C1    c     0.116565    0.111251    0.469606    0.000000
     6  C1    c     0.187843    0.173859    0.462600    0.000000
     7  C1    c     0.181697    0.255698    0.494305    0.000000
     8  C1    c     0.205414    0.316864    0.443405    0.000000
     9  C1    c     0.226233    0.272863    0.380213    0.000000
    10  C1    c     0.192280    0.306523    0.307107    0.000000
    11  C1    c     0.146525    0.252765    0.243818    0.000000
    12  C1    c     0.135909    0.166790    0.255326    0.000000
    13  C1    c     0.041213    0.123813    0.216150    0.000000
    14  C1    c     0.017496    0.062639    0.267055    0.000000
    15  C1    c     0.912952    0.047264    0.266950    0.000000
    16  C1    c     0.885502    0.036648    0.337487    0.000000
    17  C1    c     0.963342    0.041697    0.406207    0.000000
    18  C1    c     0.942647    0.085698    0.469432    0.000000
    19  C1    c     0.037322    0.128695    0.508602    0.000000
    20  C1    c     0.031447    0.208283    0.539498    0.000000
    21  C1    c     0.104619    0.272658    0.532245    0.000000
    22  C1    c     0.049127    0.351276    0.520347    0.000000
    23  C1    c     0.072200    0.410790    0.470820    0.000000
    24  C1    c     0.151411    0.393344    0.431812    0.000000
    25  C1    c     0.116616    0.427955    0.356690    0.000000
    26  C1    c     0.136750    0.385142    0.295193    0.000000
    27  C1    c     0.056739    0.379974    0.224545    0.000000
    28  C1    c     0.062773    0.298155    0.192794    0.000000
    29  C1    c     0.970676    0.256337    0.154673    0.000000
    30  C1    c     0.959747    0.167962    0.166513    0.000000
    31  C1    c     0.852279    0.152164    0.166399    0.000000
    32  C1    c     0.829203    0.092645    0.215928    0.000000
    33  C1    c     0.749991    0.110078    0.254937    0.000000
    34  C1    c     0.784789    0.075468    0.330069    0.000000
    35  C1    c     0.764658    0.118279    0.391577    0.000000
    36  C1    c     0.844676    0.123462    0.462221    0.000000
    37  C1    c     0.838639    0.205282    0.493982    0.000000
    38  C1    c     0.930737    0.247106    0.532090    0.000000
    39  C1    c     0.941665    0.335490    0.520255    0.000000
    40  C1    c     0.860199    0.379647    0.470630    0.000000
    41  C1    c     0.883919    0.440831    0.419713    0.000000
    42  C1    c     0.988459    0.456188    0.419809    0.000000
    43  C1    c     0.015910    0.466796    0.349266    0.000000
    44  C1    c     0.938075    0.461764    0.280541    0.000000
    45  C1    c     0.958772    0.417755    0.217318    0.000000
    46  C1    c     0.864094    0.374767    0.178134    0.000000
    47  C1    c     0.869964    0.295169    0.147240    0.000000
    48  C1    c     0.796785    0.230783    0.154488    0.000000
    49  C1    c     0.719730    0.247746    0.192438    0.000000
    50  C1    c     0.696012    0.186560    0.243357    0.000000
    51  C1    c     0.675321    0.230570    0.306588    0.000000
    52  C1    c     0.709169    0.196899    0.379675    0.000000
    53  C1    c     0.754892    0.250672    0.442968    0.000000
    54  C1    c     0.765523    0.336653    0.431452    0.000000
    55  C1    c     0.730729    0.371267    0.356319    0.000000
    56  C1    c     0.686249    0.318956    0.294748    0.000000
    57  C1    c     0.713696    0.329572    0.224199    0.000000
    58  C1    c     0.784880    0.392208    0.217143    0.000000
    59  C1    c     0.830607    0.445979    0.280438    0.000000
    60  C1    c     0.803903    0.435654    0.349065    0.000000
    61  C1    c     0.294053    0.682513    0.112421    0.000000
    62  C1    c     0.339637    0.630611    0.174052    0.000000
    63  C1    c     0.413188    0.566622    0.166588    0.000000
    64  C1    c     0.439154    0.556276    0.097696    0.000000
    65  C1    c     0.392295    0.609630    0.034341    0.000000
    66  C1    c     0.320745    0.671878    0.041602    0.000000
    67  C1    c     0.325611    0.753654    0.009437    0.000000
    68  C1    c     0.301925    0.814830    0.060376    0.000000
    69  C1    c     0.282421    0.770862    0.124024    0.000000
    70  C1    c     0.316690    0.804906    0.196941    0.000000
    71  C1    c     0.363549    0.751553    0.260296    0.000000
    72  C1    c     0.374864    0.665607    0.249009    0.000000
    73  C1    c     0.470187    0.623247    0.287871    0.000000
    74  C1    c     0.493873    0.562071    0.236932    0.000000
    75  C1    c     0.598328    0.547298    0.236470    0.000000
    76  C1    c     0.625019    0.536663    0.165651    0.000000
    77  C1    c     0.546531    0.541090    0.097221    0.000000
    78  C1    c     0.566035    0.585058    0.033573    0.000000
    79  C1    c     0.470712    0.627418    0.994711    0.000000
    80  C1    c     0.475444    0.706969    0.963420    0.000000
    81  C1    c     0.401893    0.770958    0.970885    0.000000
    82  C1    c     0.456624    0.849922    0.982194    0.000000
    83  C1    c     0.433583    0.909433    0.031747    0.000000
    84  C1    c     0.355167    0.891645    0.071377    0.000000
    85  C1    c     0.390393    0.926642    0.146334    0.000000
    86  C1    c     0.371421    0.883870    0.208251    0.000000
    87  C1    c     0.452106    0.879319    0.278594    0.000000
    88  C1    c     0.447241    0.797542    0.310761    0.000000
    89  C1    c     0.539970    0.756335    0.348565    0.000000
    90  C1    c     0.551601    0.667985    0.336962    0.000000
    91  C1    c     0.658979    0.652799    0.336487    0.000000
    92  C1    c     0.682020    0.593287    0.286935    0.000000
    93  C1    c     0.760436    0.611075    0.247304    0.000000
    94  C1    c     0.725207    0.576080    0.172347    0.000000
    95  C1    c     0.744180    0.618851    0.110431    0.000000
    96  C1    c     0.663496    0.623402    0.040086    0.000000
    97  C1    c     0.668361    0.705178    0.007920    0.000000
    98  C1    c     0.575632    0.746386    0.970116    0.000000
    99  C1    c     0.564000    0.834735    0.981719    0.000000
   100  C1    c     0.645414    0.879473    0.030810    0.000000
   101  C1    c     0.621728    0.940649    0.081749    0.000000
   102  C1    c     0.517273    0.955423    0.082211    0.000000
   103  C1    c     0.490581    0.966058    0.153030    0.000000
   104  C1    c     0.569070    0.961631    0.221460    0.000000
   105  C1    c     0.549568    0.917663    0.285108    0.000000
   106  C1    c     0.644890    0.875303    0.323970    0.000000
   107  C1    c     0.640158    0.795752    0.355261    0.000000
   108  C1    c     0.713708    0.731763    0.347796    0.000000
   109  C1    c     0.789990    0.749067    0.309244    0.000000
   110  C1    c     0.813676    0.687891    0.258305    0.000000
   111  C1    c     0.833180    0.731858    0.194657    0.000000
   112  C1    c     0.798911    0.697815    0.121740    0.000000
   113  C1    c     0.752052    0.751168    0.058385    0.000000
   114  C1    c     0.740737    0.837113    0.069672    0.000000
   115  C1    c     0.775964    0.872110    0.144629    0.000000
   116  C1    c     0.821548    0.820208    0.206259    0.000000
   117  C1    c     0.794855    0.830843    0.277078    0.000000
   118  C1    c     0.723306    0.893091    0.284339    0.000000
   119  C1    c     0.676446    0.946443    0.220984    0.000000
   120  C1    c     0.702412    0.936098    0.152093    0.000000
   121  C1    c     0.792012    0.815180    0.613117    0.000000
   122  C1    c     0.837589    0.867073    0.674758    0.000000
   123  C1    c     0.911128    0.931076    0.667305    0.000000
   124  C1    c     0.937090    0.941446    0.598414    0.000000
   125  C1    c     0.890239    0.888102    0.535049    0.000000
   126  C1    c     0.818700    0.825841    0.542300    0.000000
   127  C1    c     0.823580    0.744074    0.510119    0.000000
   128  C1    c     0.799907    0.682879    0.561048    0.000000
   129  C1    c     0.780397    0.726826    0.624705    0.000000
   130  C1    c     0.814675    0.692767    0.697616    0.000000
   131  C1    c     0.861524    0.746110    0.760980    0.000000
   132  C1    c     0.872825    0.832061    0.749708    0.000000
   133  C1    c     0.968141    0.874426    0.788576    0.000000
   134  C1    c     0.991814    0.935621    0.737648    0.000000
   135  C1    c     0.096266    0.950413    0.737187    0.000000
[...]
           y       0.0000     -0.1150      0.0000
           z       0.0000      0.0000     -0.1150
-------------------------------------------------------------------------------
 381 C2    x      -0.1150      0.0000      0.0000
           y       0.0000     -0.1150      0.0000
           z       0.0000      0.0000     -0.1150
-------------------------------------------------------------------------------
 382 C2    x      -0.1150      0.0000      0.0000
           y       0.0000     -0.1150      0.0000
           z       0.0000      0.0000     -0.1150
-------------------------------------------------------------------------------
 383 C2    x      -0.1150      0.0000      0.0000
           y       0.0000     -0.1150      0.0000
           z       0.0000      0.0000     -0.1150
-------------------------------------------------------------------------------
 384 C2    x      -0.1150      0.0000      0.0000
           y       0.0000     -0.1150      0.0000
           z       0.0000      0.0000     -0.1150
-------------------------------------------------------------------------------
 385 H1    x       0.1150      0.0000      0.0000
           y       0.0000      0.1150      0.0000
           z       0.0000      0.0000      0.1150
-------------------------------------------------------------------------------
 386 H1    x       0.1150      0.0000      0.0000
           y       0.0000      0.1150      0.0000
           z       0.0000      0.0000      0.1150
-------------------------------------------------------------------------------
 387 H1    x       0.1150      0.0000      0.0000
           y       0.0000      0.1150      0.0000
           z       0.0000      0.0000      0.1150
-------------------------------------------------------------------------------
 388 H1    x       0.1150      0.0000      0.0000
           y       0.0000      0.1150      0.0000
           z       0.0000      0.0000      0.1150
-------------------------------------------------------------------------------
 389 H1    x       0.1150      0.0000      0.0000
           y       0.0000      0.1150      0.0000
           z       0.0000      0.0000      0.1150
-------------------------------------------------------------------------------
 390 H1    x       0.1150      0.0000      0.0000
           y       0.0000      0.1150      0.0000
           z       0.0000      0.0000      0.1150
-------------------------------------------------------------------------------
 391 C2    x      -0.1150      0.0000      0.0000
           y       0.0000     -0.1150      0.0000
           z       0.0000      0.0000     -0.1150
-------------------------------------------------------------------------------
 392 C2    x      -0.1150      0.0000      0.0000
           y       0.0000     -0.1150      0.0000
           z       0.0000      0.0000     -0.1150
-------------------------------------------------------------------------------
 393 C2    x      -0.1150      0.0000      0.0000
           y       0.0000     -0.1150      0.0000
           z       0.0000      0.0000     -0.1150
-------------------------------------------------------------------------------
 394 C2    x      -0.1150      0.0000      0.0000
           y       0.0000     -0.1150      0.0000
           z       0.0000      0.0000     -0.1150
-------------------------------------------------------------------------------
 395 C2    x      -0.1150      0.0000      0.0000
           y       0.0000     -0.1150      0.0000
           z       0.0000      0.0000     -0.1150
-------------------------------------------------------------------------------
 396 C2    x      -0.1150      0.0000      0.0000
           y       0.0000     -0.1150      0.0000
           z       0.0000      0.0000     -0.1150
-------------------------------------------------------------------------------
 397 H1    x       0.1150      0.0000      0.0000
           y       0.0000      0.1150      0.0000
           z       0.0000      0.0000      0.1150
-------------------------------------------------------------------------------
 398 H1    x       0.1150      0.0000      0.0000
           y       0.0000      0.1150      0.0000
           z       0.0000      0.0000      0.1150
-------------------------------------------------------------------------------
 399 H1    x       0.1150      0.0000      0.0000
           y       0.0000      0.1150      0.0000
           z       0.0000      0.0000      0.1150
-------------------------------------------------------------------------------
 400 H1    x       0.1150      0.0000      0.0000
           y       0.0000      0.1150      0.0000
           z       0.0000      0.0000      0.1150
-------------------------------------------------------------------------------




  Elastic Constant Matrix: (Units=GPa)

-------------------------------------------------------------------------------
  Indices      1         2         3         4         5         6    
-------------------------------------------------------------------------------
       1     -2.0811   11.1091   38.9149   13.2036  -18.4529  -18.6895
       2     11.0217   34.0301   25.7281   -2.7907   -6.8258   -4.4468
       3      9.6002   19.4522   49.6150   -0.0239    3.7357   11.1932
       4     10.5629   -7.3632   14.7234    2.5308   14.5950    2.1965
       5    -11.7767   11.9998    3.9340    5.0945    8.6345   27.9074
       6     -5.3144   -7.1702    8.2566    1.7278    1.2129    2.7598
-------------------------------------------------------------------------------


  Elastic Compliance Matrix: (Units=1/GPa)

-------------------------------------------------------------------------------
  Indices      1         2         3         4         5         6    
-------------------------------------------------------------------------------
       1    0.021450 -0.122682  0.101272 -0.023332 -0.016483 -0.277905
       2   -0.004691  0.067411 -0.048201  0.021694  0.019933  0.053517
       3   -0.002119  0.012044  0.006364  0.001195 -0.007774  0.056905
       4    0.062495 -0.074297  0.008637  0.032633  0.043135 -0.193681
       5   -0.027882  0.140440 -0.120310  0.097847  0.021304  0.232116
       6    0.008586 -0.112344  0.098212 -0.055573  0.006936 -0.184767
-------------------------------------------------------------------------------

  Mechanical properties :

-------------------------------------------------------------------------------
  Convention :                    Reuss         Voigt         Hill
-------------------------------------------------------------------------------
  Bulk  Modulus (GPa)     =      32.41821      21.93225      27.17523
  Shear Modulus (GPa)     =    -461.18461       5.55101    -227.81680
-------------------------------------------------------------------------------
  Velocity S-wave (km/s)  =     -17.19383       1.88635     -12.08448
  Velocity P-wave (km/s)  =      19.32330       4.33629      13.31515
-------------------------------------------------------------------------------
  Compressibility (1/GPa) =    0.03084686
-------------------------------------------------------------------------------
  Stress axis :                     x             y             z
-------------------------------------------------------------------------------
  Youngs Moduli (GPa)     =      46.62002      14.83435     157.13916
-------------------------------------------------------------------------------
  Poissons Ratio (x)      =                     1.81991     -15.91373
  Poissons Ratio (y)      =       5.71945                     7.57430
  Poissons Ratio (z)      =      -4.72128       0.71503
-------------------------------------------------------------------------------


  Piezoelectric Strain Matrix: (Units=C/m**2)

-------------------------------------------------------------------------------
  Indices      1         2         3         4         5         6    
-------------------------------------------------------------------------------
       x     0.45155   0.04174  -0.53595  -0.52649   0.02777  -0.67489
       y     0.49253  -0.51671   0.36951  -0.79401  -0.19894  -0.96726
       z    -0.21319   0.10392   0.43415   0.65133   0.29940   0.20691
-------------------------------------------------------------------------------


  Piezoelectric Stress Matrix: (Units=10**-11 C/N)

-------------------------------------------------------------------------------
  Indices      1         2         3         4         5         6    
-------------------------------------------------------------------------------
       x    14.96685  -2.04564  -4.31139  13.52196 -14.98230  10.06985
       y    40.19870 -12.79079  -5.93590  22.52097 -43.71997  32.00303
       z    -5.09881   1.82496   1.46912  -2.31998   8.64423  -4.32165
-------------------------------------------------------------------------------


  Static dielectric constant tensor : 

-------------------------------------------------------------------------------
              x         y         z
-------------------------------------------------------------------------------
       x     1.15923  -0.10383   0.01947
       y    -0.10383   1.01472   0.11781
       z     0.01947   0.11781   1.14906
--------------------------------------------------------------------------------

  Static refractive indices : 

-------------------------------------------------------------------------------
    1 =    0.95207      2 =    1.08353      3 =    1.11469
-------------------------------------------------------------------------------


  Phonon Calculation : 

  Number of k points for this configuration =        1

--------------------------------------------------------------------------------
  K point      1 =   0.000000  0.000000  0.000000  Weight =    1.000
--------------------------------------------------------------------------------

 Frequencies (cm-1) : 

  -38.93  -15.25   -0.44   -0.38   -0.38   -0.36   -0.35   -0.24   -0.22
   -0.00   -0.00   -0.00   -0.00   -0.00    0.00    0.00    0.00    0.00
    0.00    0.00    0.00    0.00    0.00    0.00    0.08    0.33    0.47
    3.20    3.21   27.63   33.46   35.58   38.31   40.59   46.05   47.37
   54.88   56.12   57.66   59.75   61.13   63.28   65.64   68.96   70.37
   74.38   74.64   76.68   78.13   79.83   82.87   83.85   86.77   88.70
   90.64   92.04   93.01   94.77   96.11   98.08  100.82  101.06  102.57
  104.80  105.85  106.64  108.01  109.83  110.39  111.63  113.72  115.80
  117.46  118.46  119.97  121.03  122.54  123.88  125.72  126.04  127.62
  129.62  129.83  131.18  132.18  132.43  133.70  134.71  135.77  137.10
  138.63  139.77  140.17  142.65  142.95  144.23  145.58  146.76  149.30
  149.40  149.58  150.68  152.72  154.10  154.95  155.92  157.12  158.01
  159.91  160.96  161.87  162.94  162.97  165.43  165.50  166.94  169.12
  169.61  170.45  172.37  172.90  173.96  175.08  175.66  177.61  178.49
  179.37  180.80  181.10  182.38  183.37  183.89  184.94  185.75  187.04
  188.87  189.83  191.61  192.70  193.34  194.37  194.79  196.17  196.83
  198.00  198.31  199.04  201.55  202.25  202.42  203.05  205.56  206.70
  208.54  209.07  210.01  210.97  212.23  212.76  214.08  215.20  216.35
  217.00  217.16  219.22  220.60  222.64  223.71  224.45  226.44  226.83
  228.15  228.54  229.12  230.26  231.25  232.44  233.65  234.63  235.45
  236.09  237.92  238.01  240.16  240.94  243.32  245.42  246.33  247.72
  248.87  249.71  253.58  254.15  254.90  255.47  257.52  257.97  260.13
  261.05  261.62  262.56  264.39  266.08  266.65  267.47  270.17  270.79
  271.62  272.32  273.93  275.37  276.85  277.33  278.44  279.11  280.64
  280.77  280.80  280.80  280.80  280.84  280.84  280.84  280.89  280.89
  280.89  280.91  280.91  280.91  280.92  280.94  280.94  280.94  280.96
  281.00  281.01  281.30  283.34  285.73  287.16  287.63  289.71  291.08
  291.66  292.88  294.78  295.40  296.66  298.38  299.34  300.61  301.96
  305.18  306.73  307.49  309.38  309.60  310.68  313.20  314.08  316.86
  317.26  319.01  319.35  320.10  322.49  324.46  326.07  328.28  331.97
  333.93  333.99  335.81  336.53  340.07  341.80  343.27  344.64  347.11
  347.92  351.47  354.87  357.90  358.53  358.56  358.58  358.58  358.58
  358.64  358.64  358.64  358.70  358.70  358.70  358.83  359.22  360.38
  361.50  363.39  364.39  366.78  368.17  370.82  375.06  375.10  375.22
  375.22  375.22  375.22  375.27  375.27  375.28  375.35  375.35  375.35
  375.40  375.41  375.41  375.41  375.53  375.61  377.98  380.63  383.02
  390.31  391.82  392.79  394.79  395.61  397.46  404.15  407.53  411.53
  414.12  416.14  421.84  422.84  427.24  430.43  432.53  432.53  432.53
  432.55  432.57  432.61  432.62  432.62  432.62  432.63  432.63  432.63
  432.63  432.66  432.66  432.66  432.67  432.70  432.70  432.71  432.96
  439.65  441.09  441.16  441.16  441.16  441.90  445.01  446.02  447.71
  449.20  449.27  449.27  449.34  449.34  449.34  449.34  449.34  449.34
  449.38  449.38  449.38  449.38  449.38  449.38  449.45  449.50  452.28
  452.54  452.70  452.70  452.70  452.70  452.72  452.73  452.73  452.76
  452.76  452.76  452.76  452.83  452.83  452.83  452.86  452.86  452.86
  452.88  453.01  454.42  456.99  459.51  465.08  466.50  467.69  470.25
  477.33  479.24  481.64  485.67  488.51  491.29  492.77  494.16  500.76
  503.12  506.80  510.81  511.82  511.89  511.92  511.92  511.92  511.96
  511.96  511.96  511.96  512.04  512.04  512.04  512.04  512.04  512.04
  512.09  512.09  512.09  512.11  512.24  512.28  519.56  522.33  525.73
  525.81  525.82  525.84  525.84  525.84  525.85  525.86  525.86  525.87
  525.87  525.87  525.99  528.14  530.41  532.94  543.89  546.01  547.75
  550.01  554.10  555.06  558.85  561.79  562.54  567.54  568.04  571.01
  575.35  582.65  583.53  585.15  588.22  590.54  595.94  598.69  602.04
  604.14  606.32  608.35  612.62  615.29  616.13  618.57  618.63  618.63
  618.64  618.68  618.68  618.68  618.68  618.72  618.72  618.72  618.79
  621.45  623.95  628.57  631.67  632.15  634.76  634.84  634.84  634.84
  634.86  634.87  634.87  634.87  634.93  635.01  635.01  635.01  635.08
  635.09  635.09  635.09  635.52  638.81  640.91  643.12  643.71  650.06
  653.90  654.05  655.95  657.02  657.30  657.41  657.41  657.41  657.42
  657.43  657.43  657.43  657.44  657.45  657.45  657.57  661.41  662.93
  665.19  666.99  669.14  669.83  671.43  680.58  682.68  685.01  693.15
  694.32  697.53  699.13  699.49  701.41  702.46  702.53  702.53  702.53
  702.54  702.55  702.56  702.56  702.58  702.58  702.58  702.60  703.27
  705.53  706.09  707.31  709.12  709.77  710.54  713.60  715.94  716.49
  717.54  718.19  718.28  718.28  718.28  718.39  718.43  718.43  718.43
  718.43  718.43  718.43  718.43  718.49  718.55  718.55  718.55  718.57
  718.61  718.61  718.61  719.35  719.83  726.44  728.90  731.17  735.67
  739.89  740.08  740.08  740.08  740.08  740.08  740.08  740.10  740.10
  740.10  740.11  740.11  740.11  740.13  740.14  740.17  741.14  742.30
  743.12  744.68  748.12  749.85  749.85  749.85  749.89  749.91  749.93
  749.93  749.93  749.97  750.00  750.00  750.00  751.69  757.75  758.55
  758.64  758.64  758.64  758.79  758.84  758.84  758.84  758.88  758.89
  758.89  758.89  758.97  758.97  758.97  758.98  759.03  759.12  759.12
  759.12  764.76  769.30  770.70  774.32  775.20  777.64  783.85  784.56
  785.43  791.84  793.16  797.20  797.37  797.38  797.39  797.39  797.45
  797.50  797.51  797.51  797.51  797.52  797.52  797.52  797.53  797.53
  797.53  797.56  797.65  797.65  797.65  797.68  800.86  803.42  803.66
  807.10  809.29  814.49  814.90  820.06  820.41  821.20  823.44  826.92
  830.24  832.15  833.71  837.66  841.15  843.98  844.69  845.41  847.62
  851.73  851.74  851.74  851.77  851.87  851.93  851.94  851.94  851.94
  851.94  851.94  851.94  852.09  852.13  852.14  852.14  855.62  861.30
  861.86  868.21  869.44  871.92  872.03  872.03  872.03  872.08  872.14
  872.14  872.14  872.19  872.25  872.26  872.26  872.26  876.26  877.46
  880.67  889.63  893.46  897.03  897.54  908.72  909.89  910.91  911.73
  912.38  916.33  924.45  930.08  930.24  930.24  930.24  930.32  930.43
  930.43  930.43  930.58  930.58  930.59  930.59  930.67  930.86  930.86
  930.86  934.11  943.56  946.98  947.19  947.19  947.19  947.27  947.30
  947.33  947.33  947.33  947.40  947.47  947.47  947.47  947.48  947.49
  947.49  947.65  947.65  947.65  947.69  951.47  953.62  957.03  959.51
  960.82  961.49  967.48  968.08  970.62  970.87  971.47  973.67  974.24
  976.59  979.37  988.42  988.75  988.75  988.75  988.76  988.79  988.79
  988.79  988.86  988.86  988.87  988.87  992.09 1002.59 1006.88 1013.90
 1021.95 1029.48 1033.21 1040.49 1045.22 1051.17 1059.44 1079.29 1080.95
 1081.76 1081.89 1081.92 1081.92 1081.92 1081.99 1081.99 1082.00 1082.00
 1082.12 1082.13 1082.13 1086.56 1088.88 1099.81 1101.61 1101.67 1101.72
 1101.72 1101.72 1101.72 1101.75 1101.76 1101.76 1101.77 1101.77 1101.77
 1101.81 1101.86 1101.87 1101.87 1103.67 1117.50 1117.54 1117.54 1117.54
 1117.56 1117.79 1117.83 1117.84 1117.84 1117.88 1117.94 1117.94 1117.95
 1118.04 1118.04 1118.04 1118.11 1118.20 1118.20 1118.20 1119.02 1127.57
 1136.94 1137.07 1137.09 1137.09 1137.09 1137.10 1137.10 1137.10 1137.11
 1137.12 1137.12 1137.12 1141.74 1165.77 1168.01 1168.24 1168.34 1168.34
 1168.34 1168.47 1168.64 1168.64 1168.64 1168.71 1168.71 1168.71 1168.73
 1188.04 1204.70 1220.41 1220.61 1220.71 1220.71 1220.72 1220.89 1220.89
 1220.89 1220.91 1220.99 1220.99 1220.99 1221.06 1221.06 1221.07 1221.07
 1234.14 1246.73 1302.09 1302.75 1302.75 1302.75 1302.81 1302.81 1302.82
 1302.82 1302.89 1302.89 1302.89 1302.95 1317.93 1385.68 1385.74 1385.84
 1385.85 1385.94 1385.95 1385.95 1385.97 1385.98 1385.98 1386.02 1386.02
 1386.02 1386.04 1386.04 1386.04 1386.05 1386.08 1386.08 1386.08 1390.20
 1390.54 1390.54 1390.55 1390.55 1390.70 1390.77 1390.78 1390.78 1390.78
 1390.79 1390.80 1390.80 1390.80 1390.80 1390.80 1390.88 1391.05 1391.05
 1391.05 1549.35 1549.56 1549.83 1549.84 1549.84 1550.02 1550.02 1550.03
 1550.05 1550.06 1550.06 1550.06 1550.24 1550.24 1550.25 1550.32 1578.41
 1578.44 1578.51 1578.51 1578.51 1578.55 1578.69 1578.69 1578.69 1578.69
 1578.79 1578.79 1578.80 1578.89 1578.90 1578.90 1594.52 1594.85 1594.86
 1594.86 1596.83 1597.41 1597.42 1597.43 1597.43 1597.46 1597.47 1597.47
 1597.50 1597.53 1597.53 1597.53 1612.45 1612.81 1613.02 1613.05 1613.05
 1613.05 1613.12 1613.12 1613.13 1613.14 1613.15 1613.15 1613.16 1613.16
 1613.16 1613.16 1613.22 1613.25 1613.25 1613.25 1642.52 1642.64 1642.77
 1642.79 1642.80 1642.80 1642.86 1642.87 1642.87 1642.90 1642.90 1642.91
 1755.61 1755.75 1755.75 1755.75 1799.79 1800.34 1800.34 1800.34 1800.34
 1800.37 1800.39 1800.39 1800.50 1800.50 1800.51 1800.59 1825.69 1826.20
 1826.34 1826.35 1826.35 1826.49 1826.49 1826.49 1826.49 1826.50 1826.50
 1826.60 1828.41 1828.64 1828.75 1828.75 1828.76 1828.80 1828.84 1828.84
 1828.85 1828.99 1828.99 1828.99 1828.99 1829.00 1829.02 1829.02 1829.18
 1829.18 1829.19 1829.23 1896.21 1896.69 1896.87 1896.88 1896.88 1896.96
 1896.97 1896.98 1896.98 1896.99 1896.99 1896.99 1897.00 1897.02 1897.02
 1897.03 1911.61 1911.93 1912.15 1912.15 1912.16 1912.19 1912.22 1912.23
 1912.23 1912.30 1912.30 1912.30 1912.32 1912.33 1912.33 1912.34 1915.45
 1916.00 1916.30 1916.41 1916.42 1916.42 1916.47 1916.47 1916.48 1916.49
 1916.49 1916.49 1916.50 1916.50 1916.50 1916.55 1916.55 1916.56 1916.78
 1916.88 1923.68 1924.14 1924.19 1924.32 1924.32 1924.32 1924.33 1924.33
 1924.34 1924.34 1924.35 1924.36 1924.37 1924.40 1924.40 1924.40 1924.41
 1924.41 1924.42 1924.56




!!!!!!!!!!!!!!!!!!!!!!!!!!!!!!!!!!!!!!!!!!!!!!!!!!!!!!!!!!!!!!!!!!!!!!!!!!!!!!!!
!! ERROR : thermal conductivity cannot be calculated as temperature is too low
!!!!!!!!!!!!!!!!!!!!!!!!!!!!!!!!!!!!!!!!!!!!!!!!!!!!!!!!!!!!!!!!!!!!!!!!!!!!!!!!


 Program terminated by processor     0 in thermalconducti

