ITEM: TIMESTEP
0
ITEM: NUMBER OF ATOMS
400
ITEM: BOX BOUNDS pp pp pp xy xz yz
-7.5462 11.2415 1.01854e-15
-8.03902e-07 16.634 -5.03069
0.000130341 18.4019 1.47617e-15
ITEM: ATOMS id type xu yu zu
 1 1 0.993 3.067 7.215
 2 2 0.645 2.104 5.952
 3 3 -0.533 1.21 6.146
 4 4 -1.193 1.071 7.351
 5 5 -0.875 1.941 8.494
 6 6 0.086 2.915 8.39
 7 7 -0.175 4.233 8.917
 8 8 0.386 5.217 8.014
 9 9 0.997 4.516 6.906
 10 10 0.885 5.042 5.643
 11 11 0.555 4.169 4.496
 12 12 0.377 2.815 4.673
 13 13 -0.729 2.162 4.016
 14 14 -1.291 1.186 4.923
 15 15 -2.654 0.942 4.912
 16 16 -3.344 0.76 6.17
 17 17 -2.629 0.842 7.357
 18 18 -3.2 1.544 8.495
 19 19 -2.126 2.229 9.187
 20 20 -2.345 3.482 9.743
 21 21 -1.353 4.516 9.606
 22 22 -2.019 5.787 9.415
 23 23 -1.479 6.724 8.548
 24 24 -0.246 6.445 7.836
 25 25 -0.341 6.997 6.517
 26 26 0.198 6.303 5.433
 27 27 -0.534 6.225 4.187
 28 28 -0.312 4.918 3.619
 29 29 -1.346 4.267 2.941
 30 30 -1.556 2.864 3.148
 31 31 -2.99 2.621 3.15
 32 32 -3.526 1.676 4.016
 33 33 -4.757 1.957 4.727
 34 34 -4.648 1.401 6.058
 35 35 -5.193 2.07 7.137
 36 36 -4.451 2.153 8.386
 37 37 -4.68 3.457 8.959
 38 38 -3.647 4.118 9.629
 39 39 -3.447 5.54 9.427
 40 40 -4.285 6.245 8.567
 41 41 -3.718 7.231 7.657
 42 42 -2.345 7.467 7.65
 43 43 -1.639 7.633 6.391
 44 44 -2.338 7.557 5.195
 45 45 -1.775 6.849 4.068
 46 46 -2.857 6.169 3.366
 47 47 -2.644 4.921 2.816
 48 48 -3.655 3.888 2.951
 49 49 -4.841 4.161 3.628
 50 50 -5.405 3.177 4.534
 51 51 -5.976 3.883 5.667
 52 52 -5.865 3.339 6.939
 53 53 -5.552 4.2 8.07
 54 54 -5.35 5.552 7.869
 55 55 -5.458 6.122 6.534
 56 56 -5.766 5.301 5.464
 57 57 -5.066 5.473 4.201
 58 58 -4.092 6.455 4.067
 59 59 -3.77 7.313 5.208
 60 60 -4.448 7.15 6.411
 61 61 1.965 2.024 6.696
 62 62 2.202 0.82 7.562
 63 63 2.496 0.982 8.915
 64 64 2.76 -0.125 9.721
 65 65 2.745 -1.394 9.172
 66 66 2.465 -1.566 7.827
 67 67 3.306 4.16 3.086
 68 68 5.443 4.643 3.58
 69 69 2.184 -0.467 7.027
 70 70 3.201 2.551 5.957
 71 71 3.575 1.757 4.708
 72 72 4.74 2.425 3.961
 73 73 4.391 3.817 3.499
 74 74 5.199 6.027 3.198
 75 75 2.508 1.931 9.287
 76 76 3.013 0.025 10.703
 77 77 2.987 -2.187 9.747
 78 78 2.411 -2.467 7.403
 79 79 1.935 -0.694 6.052
 80 80 3.015 3.505 5.69
 81 81 4.031 2.563 6.656
 82 82 2.763 1.703 4.028
 83 83 3.825 0.807 4.983
 84 84 5.54 2.48 4.538
 85 85 4.999 1.923 3.112
 86 86 4.75 6.07 2.35
 87 87 4.565 6.452 3.944
 88 88 6.157 6.426 3.143
 89 89 3.898 6.537 6.568
 90 90 4.007 4.489 8.961
 91 3 4.928 6.825 7.939
 92 4 4.976 5.935 8.994
 93 5 5.79 6.176 10.084
 94 6 6.551 7.335 10.121
 95 7 6.494 8.235 9.066
 96 8 5.694 7.977 7.969
 97 91 5.799 5.594 10.868
 98 92 7.068 7.525 10.925
 99 93 7.056 9.147 9.124
 100 94 5.623 8.655 7.179
 101 1 3.37 11.384 1.986
 102 2 3.718 10.421 3.249
 103 3 4.896 9.527 3.055
 104 4 5.556 9.388 1.85
 105 5 5.238 10.258 0.707
 106 6 4.277 11.232 0.811
 107 7 4.538 12.55 0.284
 108 8 3.977 13.534 1.187
 109 9 3.366 12.833 2.295
 110 10 3.478 13.359 3.558
 111 11 3.808 12.486 4.705
 112 12 3.986 11.132 4.528
 113 13 5.092 10.479 5.185
 114 14 5.654 9.503 4.278
 115 15 7.017 9.259 4.289
 116 16 7.707 9.077 3.031
 117 17 6.992 9.159 1.844
 118 18 7.563 9.861 0.706
 119 19 6.489 10.546 0.014
 120 20 6.708 11.799 -0.542
 121 21 5.716 12.833 -0.405
 122 22 6.382 14.104 -0.214
 123 23 5.842 15.041 0.653
 124 24 4.609 14.762 1.365
 125 25 4.704 15.314 2.684
 126 26 4.165 14.62 3.768
 127 27 4.897 14.542 5.014
 128 28 4.675 13.235 5.582
 129 29 5.709 12.584 6.26
 130 30 5.919 11.181 6.053
 131 31 7.353 10.938 6.051
 132 32 7.889 9.993 5.185
 133 33 9.12 10.274 4.474
 134 34 9.011 9.718 3.143
 135 35 9.556 10.387 2.064
 136 36 8.814 10.47 0.815
 137 37 9.043 11.774 0.242
 138 38 8.01 12.435 -0.428
 139 39 7.81 13.857 -0.226
 140 40 8.648 14.562 0.634
 141 41 8.081 15.548 1.544
 142 42 6.708 15.784 1.551
 143 43 6.002 15.95 2.81
 144 44 6.701 15.874 4.006
 145 45 6.138 15.166 5.133
 146 46 7.22 14.486 5.835
 147 47 7.007 13.238 6.385
 148 48 8.018 12.205 6.25
 149 49 9.204 12.478 5.573
 150 50 9.768 11.494 4.667
 151 51 10.339 12.2 3.534
 152 52 10.228 11.656 2.262
 153 53 9.915 12.517 1.131
 154 54 9.713 13.869 1.332
 155 55 9.821 14.439 2.667
 156 56 10.129 13.618 3.737
 157 57 9.429 13.79 5
 158 58 8.455 14.772 5.134
 159 59 8.133 15.63 3.993
 160 60 8.811 15.467 2.79
 161 61 2.398 10.341 2.505
 162 62 2.161 9.137 1.639
 163 63 1.867 9.299 0.286
 164 64 1.603 8.192 -0.52
 165 65 1.618 6.923 0.029
 166 66 1.898 6.751 1.374
 167 67 1.057 12.477 6.115
 168 68 -1.08 12.96 5.621
 169 69 2.179 7.85 2.174
 170 70 1.162 10.868 3.244
 171 71 0.788 10.074 4.493
 172 72 -0.377 10.742 5.24
 173 73 -0.028 12.134 5.702
 174 74 -0.836 14.344 6.003
 175 75 1.855 10.248 -0.086
 176 76 1.35 8.342 -1.502
 177 77 1.376 6.13 -0.546
 178 78 1.952 5.85 1.798
 179 79 2.428 7.623 3.149
 180 80 1.348 11.822 3.511
 181 81 0.332 10.88 2.545
 182 82 1.6 10.02 5.173
 183 83 0.538 9.124 4.218
 184 84 -1.177 10.797 4.663
 185 85 -0.636 10.24 6.089
 186 86 -0.387 14.387 6.851
 187 87 -0.202 14.769 5.257
 188 88 -1.794 14.743 6.058
 189 1 7.733 13.567 11.187
 190 2 8.081 14.53 12.45
 191 3 9.259 15.424 12.256
 192 4 9.919 15.563 11.051
 193 5 9.601 14.693 9.908
 194 6 8.64 13.719 10.012
 195 7 8.901 12.401 9.485
 196 8 8.34 11.417 10.388
 197 9 7.729 12.118 11.496
 198 10 7.841 11.592 12.759
 199 11 8.171 12.465 13.906
 200 12 8.349 13.819 13.729
 201 13 9.455 14.472 14.386
 202 14 10.017 15.448 13.479
 203 15 11.38 15.692 13.49
 204 16 12.07 15.874 12.232
 205 17 11.355 15.792 11.045
 206 18 11.926 15.09 9.907
 207 19 10.852 14.405 9.215
 208 20 11.071 13.152 8.659
 209 21 10.079 12.118 8.796
 210 22 10.745 10.847 8.987
 211 23 10.205 9.91 9.854
 212 24 8.972 10.189 10.566
 213 25 9.067 9.637 11.885
 214 26 8.528 10.331 12.969
 215 27 9.26 10.409 14.215
 216 28 9.038 11.716 14.783
 217 29 10.072 12.367 15.461
 218 30 10.282 13.77 15.254
 219 31 11.716 14.013 15.252
 220 32 12.252 14.958 14.386
 221 33 13.483 14.677 13.675
 222 34 13.374 15.233 12.344
 223 35 13.919 14.564 11.265
 224 36 13.177 14.481 10.016
 225 37 13.406 13.177 9.443
 226 38 12.373 12.516 8.773
 227 39 12.173 11.094 8.975
 228 40 13.011 10.389 9.835
 229 41 12.444 9.403 10.745
 230 42 11.071 9.167 10.752
 231 43 10.365 9.001 12.011
 232 44 11.064 9.077 13.207
 233 45 10.501 9.785 14.334
 234 46 11.583 10.465 15.036
 235 47 11.37 11.713 15.586
 236 48 12.381 12.746 15.451
 237 49 13.567 12.473 14.774
 238 50 14.131 13.457 13.868
 239 51 14.702 12.751 12.735
 240 52 14.591 13.295 11.463
 241 53 14.278 12.434 10.332
 242 54 14.076 11.082 10.533
 243 55 14.184 10.512 11.868
 244 56 14.492 11.333 12.938
 245 57 13.792 11.161 14.201
 246 58 12.818 10.179 14.335
 247 59 12.496 9.321 13.194
 248 60 13.174 9.484 11.991
 249 61 6.761 14.61 11.706
 250 62 6.524 15.814 10.84
 251 63 6.23 15.652 9.487
 252 64 5.966 16.759 8.681
 253 65 5.981 18.028 9.23
 254 66 6.261 18.2 10.575
 255 67 5.42 12.474 15.316
 256 68 3.283 11.991 14.822
 257 69 6.542 17.101 11.375
 258 70 5.525 14.083 12.445
 259 71 5.151 14.877 13.694
 260 72 3.986 14.209 14.441
 261 73 4.335 12.817 14.903
 262 74 3.527 10.607 15.204
 263 75 6.218 14.703 9.115
 264 76 5.713 16.609 7.699
 265 77 5.739 18.821 8.655
 266 78 6.315 19.101 10.999
 267 79 6.791 17.328 12.35
 268 80 5.711 13.129 12.712
 269 81 4.695 14.071 11.746
 270 82 5.963 14.931 14.374
 271 83 4.901 15.827 13.419
 272 84 3.186 14.154 13.864
 273 85 3.727 14.711 15.29
 274 86 3.976 10.564 16.052
 275 87 4.161 10.182 14.458
 276 88 2.569 10.208 15.259
 277 89 4.828 10.097 11.834
 278 90 4.719 12.145 9.441
 279 3 3.798 9.809 10.463
 280 4 3.75 10.699 9.408
 281 5 2.936 10.458 8.318
 282 6 2.175 9.299 8.281
 283 7 2.232 8.399 9.336
 284 8 3.032 8.657 10.433
 285 91 2.927 11.04 7.534
 286 92 1.658 9.109 7.477
 287 93 1.67 7.487 9.278
 288 94 3.103 7.979 11.223
 289 1 5.356 5.25 16.416
 290 2 5.008 6.213 15.153
 291 3 3.83 7.107 15.347
 292 4 3.17 7.246 16.552
 293 5 3.488 6.376 17.695
 294 6 4.449 5.402 17.591
 295 7 4.188 4.084 18.118
 296 8 4.749 3.1 17.215
 297 9 5.36 3.801 16.107
 298 10 5.248 3.275 14.844
 299 11 4.918 4.148 13.697
 300 12 4.74 5.502 13.874
 301 13 3.634 6.155 13.217
 302 14 3.072 7.131 14.124
 303 15 1.709 7.375 14.113
 304 16 1.019 7.557 15.371
 305 17 1.734 7.475 16.558
 306 18 1.163 6.773 17.696
 307 19 2.237 6.088 18.388
 308 20 2.018 4.835 18.944
 309 21 3.01 3.801 18.807
 310 22 2.344 2.53 18.616
 311 23 2.884 1.593 17.749
 312 24 4.117 1.872 17.037
 313 25 4.022 1.32 15.718
 314 26 4.561 2.014 14.634
 315 27 3.829 2.092 13.388
 316 28 4.051 3.399 12.82
 317 29 3.017 4.05 12.142
 318 30 2.807 5.453 12.349
 319 31 1.373 5.696 12.351
 320 32 0.837 6.641 13.217
 321 33 -0.394 6.36 13.928
 322 34 -0.285 6.916 15.259
 323 35 -0.83 6.247 16.338
 324 36 -0.088 6.164 17.587
 325 37 -0.317 4.86 18.16
 326 38 0.716 4.199 18.83
 327 39 0.916 2.777 18.628
 328 40 0.078 2.072 17.768
 329 41 0.645 1.086 16.858
 330 42 2.018 0.85 16.851
 331 43 2.724 0.684 15.592
 332 44 2.025 0.76 14.396
 333 45 2.588 1.468 13.269
 334 46 1.506 2.148 12.567
 335 47 1.719 3.396 12.017
 336 48 0.708 4.429 12.152
 337 49 -0.478 4.156 12.829
 338 50 -1.042 5.14 13.735
 339 51 -1.613 4.434 14.868
 340 52 -1.502 4.978 16.14
 341 53 -1.189 4.117 17.271
 342 54 -0.987 2.765 17.07
 343 55 -1.095 2.195 15.735
 344 56 -1.403 3.016 14.665
 345 57 -0.703 2.844 13.402
 346 58 0.271 1.862 13.268
 347 59 0.593 1.004 14.409
 348 60 -0.085 1.167 15.612
 349 61 6.328 6.293 15.897
 350 62 6.565 7.497 16.763
 351 63 6.859 7.335 18.116
 352 64 7.123 8.442 18.922
 353 65 7.108 9.711 18.373
 354 66 6.828 9.883 17.028
 355 67 7.669 4.157 12.287
 356 68 9.806 3.674 12.781
 357 69 6.547 8.784 16.228
 358 70 7.564 5.766 15.158
 359 71 7.938 6.56 13.909
 360 72 9.103 5.892 13.162
 361 73 8.754 4.5 12.7
 362 74 9.562 2.29 12.399
 363 75 6.871 6.386 18.488
 364 76 7.376 8.292 19.904
 365 77 7.35 10.504 18.948
 366 78 6.774 10.784 16.604
 367 79 6.298 9.011 15.253
 368 80 7.378 4.812 14.891
 369 81 8.394 5.754 15.857
 370 82 7.126 6.614 13.229
 371 83 8.188 7.51 14.184
 372 84 9.903 5.837 13.739
 373 85 9.362 6.394 12.313
 374 86 9.113 2.247 11.551
 375 87 8.928 1.865 13.145
 376 88 10.52 1.891 12.344
 377 89 14.222 14.854 2.633
 378 90 14.113 12.806 0.24
 379 3 13.192 15.142 1.262
 380 4 13.144 14.252 0.207
 381 5 12.33 14.493 -0.883
 382 6 11.569 15.652 -0.92
 383 7 11.626 16.552 0.135
 384 8 12.426 16.294 1.232
 385 91 12.321 13.911 -1.667
 386 92 11.052 15.842 -1.724
 387 93 11.064 17.464 0.077
 388 94 12.497 16.972 2.022
 389 89 -5.496 1.78 15.769
 390 90 -5.387 3.828 18.162
 391 3 -4.466 1.492 17.14
 392 4 -4.418 2.382 18.195
 393 5 -3.604 2.141 19.285
 394 6 -2.843 0.982 19.322
 395 7 -2.9 0.082 18.267
 396 8 -3.7 0.34 17.17
 397 91 -3.595 2.723 20.069
 398 92 -2.326 0.792 20.126
 399 93 -2.338 -0.83 18.325
 400 94 -3.771 -0.338 16.38
