ITEM: TIMESTEP
0
ITEM: NUMBER OF ATOMS
376
ITEM: BOX BOUNDS pp pp pp xy xz yz
3.1825 23.3778 2.54726
1.32884 19.0629 3.81808
-0.000216684 18.6792 2.65773
ITEM: ATOMS id type xu yu zu
 1 1 17.011 4.998 12.819
 2 2 17 3.372 12.839
 3 3 15.704 2.745 12.452
 4 4 14.632 3.458 11.953
 5 5 14.644 4.929 11.933
 6 6 15.722 5.63 12.412
 7 7 15.507 6.776 13.262
 8 8 16.516 6.784 14.301
 9 9 17.369 5.631 14.11
 10 10 17.82 4.948 15.212
 11 11 17.798 3.469 15.236
 12 12 17.346 2.756 14.148
 13 13 16.469 1.631 14.364
 14 14 15.459 1.631 13.329
 15 15 14.176 1.198 13.621
 16 16 13.05 1.92 13.072
 17 17 13.279 3.033 12.274
 18 18 12.452 4.218 12.436
 19 19 13.291 5.383 12.239
 20 20 13.093 6.521 13.009
 21 21 14.222 7.239 13.541
 22 22 13.894 7.719 14.866
 23 23 14.863 7.722 15.857
 24 24 16.207 7.255 15.575
 25 25 16.7 6.548 16.72
 26 26 17.478 5.403 16.547
 27 27 17.257 4.244 17.385
 28 28 17.453 3.065 16.578
 29 29 16.651 1.939 16.78
 30 30 16.15 1.213 15.65
 31 31 14.798 0.776 15.961
 32 32 13.832 0.769 14.963
 33 33 12.49 1.236 15.247
 34 34 12.005 1.953 14.087
 35 35 11.219 3.078 14.245
 36 36 11.449 4.245 13.406
 37 37 11.244 5.424 14.211
 38 38 12.05 6.55 14.021
 39 39 12.543 7.289 15.167
 40 40 12.211 6.877 16.455
 41 41 13.229 6.881 17.497
 42 42 14.526 7.298 17.204
 43 43 15.665 6.568 17.736
 44 44 15.455 5.455 18.538
 45 45 16.269 4.274 18.368
 46 46 15.427 3.102 18.577
 47 47 15.619 1.97 17.81
 48 48 14.473 1.248 17.287
 49 49 13.184 1.694 17.566
 50 50 12.171 1.688 16.527
 51 51 11.346 2.871 16.695
 52 52 10.888 3.55 15.575
 53 53 10.898 5.006 15.555
 54 54 11.381 5.704 16.646
 55 55 11.87 4.992 17.818
 56 56 11.848 3.609 17.835
 57 57 12.984 2.879 18.376
 58 58 14.086 3.564 18.872
 59 59 14.101 5.027 18.842
 60 60 13.009 5.721 18.331
 61 61 17.919 4.168 11.931
 62 62 17.616 4.163 10.46
 63 63 17.48 2.953 9.781
 64 64 17.158 2.932 8.424
 65 65 16.956 4.122 7.749
 66 66 17.076 5.329 8.415
 67 67 21.974 6.464 14.806
 68 68 21.142 4.381 14.706
 69 69 17.416 5.352 9.761
 70 70 19.409 4.166 12.291
 71 71 20.101 5.515 12.12
 72 72 21.543 5.464 12.65
 73 73 21.593 5.516 14.156
 74 74 21.028 4.375 16.157
 75 75 17.627 2.094 10.31
 76 76 17.025 2.029 7.96
 77 77 16.672 4.1 6.781
 78 78 16.972 6.207 7.954
 79 79 17.536 6.295 10.161
 80 80 19.867 3.49 11.699
 81 81 19.506 3.822 13.316
 82 82 20.159 5.792 11.098
 83 83 19.564 6.228 12.614
 84 84 22.074 6.218 12.295
 85 85 22.021 4.599 12.401
 86 86 20.557 5.155 16.463
 87 87 22.02 4.396 16.551
 88 88 20.489 3.506 16.345
 89 1 13.066 11.556 14.378
 90 2 13.169 13.172 14.532
 91 3 12.021 13.813 15.235
 92 4 11.016 13.1 15.86
 93 5 10.926 11.638 15.722
 94 6 11.838 10.946 14.966
 95 7 11.38 9.92 14.059
 96 8 12.167 9.984 12.845
 97 9 13.121 11.063 12.982
 98 10 13.4 11.847 11.891
 99 11 13.481 13.318 12.028
 100 12 13.299 13.919 13.253
 101 13 12.482 15.105 13.337
 102 14 11.692 15.033 14.547
 103 15 10.412 15.561 14.564
 104 16 9.364 14.836 15.248
 105 17 9.661 13.628 15.863
 106 18 8.735 12.513 15.745
 107 19 9.511 11.292 15.646
 108 20 9.086 10.264 14.816
 109 21 10.036 9.558 13.996
 110 22 9.425 9.254 12.72
 111 23 10.182 9.32 11.561
 112 24 11.586 9.682 11.616
 113 25 11.897 10.494 10.477
 114 26 12.775 11.57 10.611
 115 27 12.481 12.829 9.961
 116 28 12.914 13.894 10.832
 117 29 12.171 15.075 10.914
 118 30 11.951 15.686 12.192
 119 31 10.6 16.224 12.206
 120 32 9.847 16.162 13.372
 121 33 8.445 15.799 13.314
 122 34 8.143 14.976 14.464
 123 35 7.262 13.918 14.349
 124 36 7.565 12.651 14.997
 125 37 7.124 11.586 14.13
 126 38 7.868 10.407 14.035
 127 39 8.076 9.784 12.742
 128 40 7.532 10.361 11.597
 129 41 8.327 10.428 10.379
 130 42 9.623 9.916 10.36
 131 43 10.687 10.645 9.692
 132 44 10.407 11.853 9.07
 133 45 11.322 12.965 9.197
 134 46 10.542 14.193 9.285
 135 47 10.96 15.216 10.114
 136 48 9.992 15.928 10.929
 137 49 8.644 15.583 10.867
 138 50 7.853 15.518 12.083
 139 51 6.929 14.405 11.959
 140 52 6.647 13.622 13.07
 141 53 6.556 12.176 12.933
 142 54 6.768 11.588 11.701
 143 55 7.072 12.407 10.537
 144 56 7.147 13.782 10.67
 145 57 8.206 14.513 9.994
 146 58 9.14 13.837 9.218
 147 59 9.054 12.382 9.09
 148 60 8.035 11.688 9.732
 149 61 14.186 12.229 15.15
 150 62 14.174 12.077 16.644
 151 63 14.654 13.106 17.453
 152 64 14.61 12.995 18.842
 153 65 14.071 11.862 19.424
 154 66 13.582 10.838 18.631
 155 67 18.704 8.896 13.214
 156 68 18.812 9.379 15.405
 157 69 13.642 10.939 17.247
 158 70 15.575 12.2 14.501
 159 71 16.283 10.85 14.586
 160 72 17.71 10.941 14.025
 161 73 18.448 9.631 14.14
 162 74 19.607 8.177 15.612
 163 75 15.035 13.931 16.993
 164 76 14.932 13.783 19.413
 165 77 13.995 11.809 20.429
 166 78 13.218 9.992 19.013
 167 79 13.303 10.108 16.738
 168 80 16.144 12.892 14.962
 169 81 15.469 12.502 13.465
 170 82 16.367 10.522 15.591
 171 83 15.739 10.159 14.068
 172 84 18.23 11.633 14.501
 173 85 17.726 11.166 13.03
 174 86 20.342 8.146 14.996
 175 87 18.969 7.342 15.427
 176 88 19.936 8.281 16.593
 177 1 3.184 12.736 5.86
 178 2 3.195 14.362 5.84
 179 3 4.491 14.989 6.227
 180 4 5.563 14.276 6.726
 181 5 5.551 12.805 6.746
 182 6 4.473 12.104 6.267
 183 7 4.688 10.958 5.417
 184 8 3.679 10.95 4.378
 185 9 2.826 12.103 4.569
 186 10 2.375 12.786 3.467
 187 11 2.397 14.265 3.443
 188 12 2.849 14.978 4.531
 189 13 3.726 16.103 4.315
 190 14 4.736 16.103 5.35
 191 15 6.019 16.536 5.058
 192 16 7.145 15.814 5.607
 193 17 6.916 14.701 6.405
 194 18 7.743 13.516 6.243
 195 19 6.904 12.351 6.44
 196 20 7.102 11.213 5.67
 197 21 5.973 10.495 5.138
 198 22 6.301 10.015 3.813
 199 23 5.332 10.012 2.822
 200 24 3.988 10.479 3.104
 201 25 3.495 11.186 1.959
 202 26 2.717 12.331 2.132
 203 27 2.938 13.49 1.294
 204 28 2.742 14.669 2.101
 205 29 3.544 15.795 1.899
 206 30 4.045 16.521 3.029
 207 31 5.397 16.958 2.718
 208 32 6.363 16.965 3.716
 209 33 7.705 16.498 3.432
 210 34 8.19 15.781 4.592
 211 35 8.976 14.656 4.434
 212 36 8.746 13.489 5.273
 213 37 8.951 12.31 4.468
 214 38 8.145 11.184 4.658
 215 39 7.652 10.445 3.512
 216 40 7.984 10.857 2.224
 217 41 6.966 10.853 1.182
 218 42 5.669 10.436 1.475
 219 43 4.53 11.166 0.943
 220 44 4.74 12.279 0.141
 221 45 3.926 13.46 0.311
 222 46 4.768 14.632 0.102
 223 47 4.576 15.764 0.869
 224 48 5.722 16.486 1.392
 225 49 7.011 16.04 1.113
 226 50 8.024 16.046 2.152
 227 51 8.849 14.863 1.984
 228 52 9.307 14.184 3.104
 229 53 9.297 12.728 3.124
 230 54 8.814 12.03 2.033
 231 55 8.325 12.742 0.861
 232 56 8.347 14.125 0.844
 233 57 7.211 14.855 0.303
 234 58 6.109 14.17 -0.193
 235 59 6.094 12.707 -0.163
 236 60 7.186 12.013 0.348
 237 61 2.276 13.566 6.748
 238 62 2.579 13.571 8.219
 239 63 2.715 14.781 8.898
 240 64 3.037 14.802 10.255
 241 65 3.239 13.612 10.93
 242 66 3.119 12.405 10.264
 243 67 -1.779 11.27 3.873
 244 68 -0.947 13.353 3.973
 245 69 2.779 12.382 8.918
 246 70 0.786 13.568 6.388
 247 71 0.094 12.219 6.559
 248 72 -1.348 12.27 6.029
 249 73 -1.398 12.218 4.523
 250 74 -0.833 13.359 2.522
 251 75 2.568 15.64 8.369
 252 76 3.17 15.705 10.719
 253 77 3.523 13.634 11.898
 254 78 3.223 11.527 10.725
 255 79 2.659 11.439 8.518
 256 80 0.328 14.244 6.98
 257 81 0.689 13.912 5.363
 258 82 0.036 11.942 7.581
 259 83 0.631 11.506 6.065
 260 84 -1.879 11.516 6.384
 261 85 -1.826 13.135 6.278
 262 86 -0.362 12.579 2.216
 263 87 -1.825 13.338 2.128
 264 88 -0.294 14.228 2.334
 265 1 7.129 6.178 4.301
 266 2 7.026 4.562 4.147
 267 3 8.174 3.921 3.444
 268 4 9.179 4.634 2.819
 269 5 9.269 6.096 2.957
 270 6 8.357 6.788 3.713
 271 7 8.815 7.814 4.62
 272 8 8.028 7.75 5.834
 273 9 7.074 6.671 5.697
 274 10 6.795 5.887 6.788
 275 11 6.714 4.416 6.651
 276 12 6.896 3.815 5.426
 277 13 7.713 2.629 5.342
 278 14 8.503 2.701 4.132
 279 15 9.783 2.173 4.115
 280 16 10.831 2.898 3.431
 281 17 10.534 4.106 2.816
 282 18 11.46 5.221 2.934
 283 19 10.684 6.442 3.033
 284 20 11.109 7.47 3.863
 285 21 10.159 8.176 4.683
 286 22 10.77 8.48 5.959
 287 23 10.013 8.414 7.118
 288 24 8.609 8.052 7.063
 289 25 8.298 7.24 8.202
 290 26 7.42 6.164 8.068
 291 27 7.714 4.905 8.718
 292 28 7.281 3.84 7.847
 293 29 8.024 2.659 7.765
 294 30 8.244 2.048 6.487
 295 31 9.595 1.51 6.473
 296 32 10.348 1.572 5.307
 297 33 11.75 1.935 5.365
 298 34 12.052 2.758 4.215
 299 35 12.933 3.816 4.33
 300 36 12.63 5.083 3.682
 301 37 13.071 6.148 4.549
 302 38 12.327 7.327 4.644
 303 39 12.119 7.95 5.937
 304 40 12.663 7.373 7.082
 305 41 11.868 7.306 8.3
 306 42 10.572 7.818 8.319
 307 43 9.508 7.089 8.987
 308 44 9.788 5.881 9.609
 309 45 8.873 4.769 9.482
 310 46 9.653 3.541 9.394
 311 47 9.235 2.518 8.565
 312 48 10.203 1.806 7.75
 313 49 11.551 2.151 7.812
 314 50 12.342 2.216 6.596
 315 51 13.266 3.329 6.72
 316 52 13.548 4.112 5.609
 317 53 13.639 5.558 5.746
 318 54 13.427 6.146 6.978
 319 55 13.123 5.327 8.142
 320 56 13.048 3.952 8.009
 321 57 11.989 3.221 8.685
 322 58 11.055 3.897 9.461
 323 59 11.141 5.352 9.589
 324 60 12.16 6.046 8.947
 325 61 6.009 5.505 3.529
 326 62 6.021 5.657 2.035
 327 63 5.541 4.628 1.226
 328 64 5.585 4.739 -0.163
 329 65 6.124 5.872 -0.745
 330 66 6.613 6.896 0.048
 331 67 1.491 8.838 5.465
 332 68 1.383 8.355 3.274
 333 69 6.553 6.795 1.432
 334 70 4.62 5.534 4.178
 335 71 3.912 6.884 4.093
 336 72 2.485 6.793 4.654
 337 73 1.747 8.103 4.539
 338 74 0.588 9.557 3.067
 339 75 5.16 3.803 1.686
 340 76 5.263 3.951 -0.734
 341 77 6.2 5.925 -1.75
 342 78 6.977 7.742 -0.334
 343 79 6.892 7.626 1.941
 344 80 4.051 4.842 3.717
 345 81 4.726 5.232 5.214
 346 82 3.828 7.212 3.088
 347 83 4.456 7.575 4.611
 348 84 1.965 6.101 4.178
 349 85 2.469 6.568 5.649
 350 86 -0.147 9.588 3.683
 351 87 1.226 10.392 3.252
 352 88 0.259 9.453 2.086
 353 89 5.668 9.231 8.348
 354 1 4.071 9.08 8.981
 355 2 2.979 8.996 8.132
 356 90 3.106 9.016 7.191
 357 3 1.703 8.88 8.656
 358 91 0.954 8.823 8.073
 359 4 1.516 8.851 10.026
 360 92 0.64 8.772 10.385
 361 5 2.606 8.935 10.875
 362 93 2.479 8.915 11.817
 363 6 3.885 9.051 10.353
 364 94 4.632 9.108 10.935
 365 89 1.47 4.842 1.29
 366 1 1.359 6.451 0.523
 367 2 2.526 7.158 0.269
 368 90 3.366 6.795 0.524
 369 3 2.465 8.394 -0.357
 370 91 3.264 8.878 -0.53
 371 4 1.238 8.925 -0.727
 372 92 1.197 9.772 -1.155
 373 5 0.071 8.219 -0.473
 374 93 -0.769 8.582 -0.726
 375 6 0.133 6.982 0.153
 376 94 -0.666 6.498 0.327
