ITEM: TIMESTEP
533
ITEM: NUMBER OF ATOMS
256
ITEM: BOX BOUNDS
0 6.3454
0 6.3454
0 6.3454
ITEM: ATOMS fx fy fz 
-0.000530325 1.524e-05 0.000293826 
-4.27122e-05 -0.0024769 -0.00162881 
-7.78944e-05 -0.000717422 -0.000393024 
0.000294551 -0.000458552 -6.92216e-05 
0.00103648 0.000135359 0.00130396 
-0.00178942 -0.000397282 0.000967818 
0.000761637 -0.000165638 0.000173634 
0.000118308 -4.33989e-05 0.000236352 
0.000426979 -0.00102416 0.000684654 
0.00110713 1.82531e-05 -0.000392874 
-0.000447149 -0.000150101 -0.000940992 
0.00146394 0.000446699 0.000223799 
0.00116805 -0.000668035 0.000220312 
0.000594385 0.000327852 -0.000797225 
0.000690489 0.000697614 0.00136378 
-4.28996e-05 -0.000694938 0.000686171 
0.00146308 -0.000222305 0.000200838 
0.00098752 0.000333665 0.000948997 
-0.000386002 -0.000854593 -0.000810579 
-3.43297e-05 0.00022649 0.000641077 
-0.000842914 0.000476904 0.000519792 
-0.00378984 1.9032e-05 -0.00205049 
-0.000348249 0.000389835 0.000167455 
-0.00122791 6.47469e-05 -0.00057933 
0.00139972 0.00111066 0.000624185 
-0.00122894 0.000238649 0.000204063 
-0.000268109 -0.000243802 0.000124315 
-0.000234404 0.000436112 0.000517639 
-0.000238755 -0.000748896 -0.000123282 
0.000528427 -0.000676834 -0.00116675 
4.31907e-05 -0.000340473 0.000593619 
-5.30819e-05 -0.000937929 -0.0012892 
-0.000561306 4.02729e-05 -4.96178e-05 
-0.000798976 -0.00105151 -0.00120292 
0.000196479 -0.00117861 0.000800926 
0.000551272 -0.000634397 -0.000323381 
0.000616933 0.000407665 0.000893645 
0.000492418 -5.6256e-05 0.000668107 
0.000725479 9.04224e-05 0.000124929 
0.000526856 0.000231416 0.00020487 
0.00019746 1.26539e-05 -0.000143409 
-0.0029746 -0.000541512 0.00804546 
-9.98354e-05 -0.000177785 0.000797819 
-0.00206503 0.000966432 -0.000597063 
3.78435e-05 -0.000790101 2.95327e-06 
-0.00167146 0.00141404 -0.000798097 
-0.00122315 -0.000484635 -0.000656073 
-7.6613e-05 -0.000936739 -0.00145765 
0.000406793 9.74797e-05 -0.000761394 
0.000475287 -0.000433457 0.0015353 
-0.00101575 -0.0010942 -5.30808e-05 
0.000482554 -0.000506624 -0.000558822 
-0.000260498 0.00103198 -0.00118295 
0.00035077 -0.000183733 0.00100734 
0.000846066 0.000816139 -0.000221467 
0.000339474 0.000348054 9.92669e-05 
-0.00199205 0.00161187 0.000508304 
-0.00118647 0.000654888 -0.000903838 
5.97184e-05 -0.000376862 9.31648e-05 
-0.000306361 -0.000187946 -2.43529e-05 
0.000462679 -0.00029431 -0.0003067 
0.00080829 0.000185135 -0.000379736 
0.00239678 -0.00179737 -0.0021282 
0.00075398 -0.00071119 5.30732e-05 
0.000112504 -0.000830083 0.000681318 
-0.000822654 0.00124659 0.000959529 
-0.000736716 -0.00113466 -0.000432057 
0.00318527 0.00089363 -3.72705e-05 
0.000760453 0.000166271 0.000648131 
-0.00038532 0.00198869 -0.00175127 
0.000180022 0.000238289 0.000161868 
-0.00013755 -0.0010047 0.000305245 
0.00051274 0.000230629 0.000351003 
0.000934976 0.000806318 -0.000311747 
6.60395e-05 -0.000519602 4.3235e-05 
-0.00121412 -0.000659795 0.000180669 
7.17528e-05 -4.48626e-05 -0.000555659 
-0.00165724 -0.00092428 -0.000318961 
0.00173124 -0.00159707 -0.00329748 
-0.000306668 0.000549266 0.0014636 
0.00130165 0.000903182 0.000906292 
-0.00585234 -0.00288269 -0.000589149 
-8.89535e-06 0.000836702 0.000250167 
-0.000781494 0.000169317 0.000990223 
0.000565945 0.000232276 0.000264547 
0.000300321 0.00151424 -0.000869281 
-0.000153302 -0.00155222 -0.000106275 
0.000618803 0.00129777 -0.000175929 
-0.00314409 -0.00130578 0.000479924 
-0.000230036 -0.000983356 7.0567e-06 
-0.000523511 0.000626402 -0.000727552 
0.000682765 0.00084116 0.000273117 
-0.000877821 -9.3312e-06 -0.000246286 
6.81168e-05 0.00130713 -0.000284962 
-0.000897849 -0.000593352 0.00173915 
-0.0109168 0.000207269 0.0120583 
0.000322696 -0.000679924 -7.50226e-05 
-0.00153482 0.00192591 0.000873628 
-0.000461759 -0.000294546 -0.000422879 
0.000155999 0.000559444 0.00100244 
-0.000558908 0.000258517 0.000764456 
0.00128214 0.000663168 0.000595442 
0.000976127 -0.0002703 0.000470681 
1.39606e-05 -0.00244653 0.00384757 
-0.000710011 -0.000345324 0.000254717 
0.00367889 0.00147627 -0.000451099 
0.0089391 0.00247815 -0.00222237 
-0.00038943 0.000799333 -0.0002519 
0.00073833 0.00066383 -0.000241492 
-0.000642261 -4.83793e-05 0.000124541 
0.000514692 0.000530784 -0.00169526 
0.000441015 -0.000391671 0.000544138 
0.000601356 -0.000462502 0.000382972 
-0.00135265 0.000537676 4.31791e-05 
0.000774656 6.40229e-05 0.00119344 
0.000976564 0.000319084 -0.00530706 
0.000291081 -0.00100404 -0.00192544 
0.000444973 -9.59039e-05 5.75352e-05 
-0.000804955 0.00102479 -0.00208683 
-3.83675e-05 -0.000232152 0.00172641 
0.0016347 0.00247605 -8.41177e-05 
-0.00264733 0.00199179 0.000482745 
0.00243659 0.00207432 -0.00210817 
0.00057717 0.000367772 -0.000377217 
-0.000294975 -0.000600128 -0.000393637 
-0.000377176 2.63804e-05 3.32069e-05 
-0.000717301 -0.000380749 -0.0013054 
-0.00161679 -0.000411712 -0.000603375 
5.14129e-05 7.57531e-05 0.00034295 
0.00100932 -0.00038609 0.000698936 
-0.000559141 0.000441205 -0.000928735 
0.000827547 -0.000387117 7.76005e-05 
0.00153382 0.00301744 0.00106403 
0.000736986 4.41074e-05 -0.000670451 
0.00481247 0.00175382 -0.0184683 
-0.00111043 -0.000468435 0.000763789 
-0.000419942 0.00075064 -0.000422232 
0.000348134 0.000123793 9.42456e-05 
-0.00108764 -0.00029994 -0.000256623 
-0.000235957 -0.000224895 -0.000195237 
0.00093428 -1.51552e-05 -0.000939421 
-0.000724618 -0.000508759 0.000551029 
0.000988424 -0.000402065 0.00106444 
0.000360796 -0.00105069 0.0010724 
0.000674743 -0.00112188 -0.000409422 
5.92553e-05 -0.000102463 -0.00020768 
-0.000455938 0.000368172 0.00120411 
0.000860033 9.63123e-05 0.000134059 
-0.000430765 -0.00027641 0.000202629 
-0.000439352 -0.000126941 -1.33764e-05 
0.000487348 -0.000804657 -0.00075846 
0.00146476 0.000517386 -0.00139547 
-0.000619003 -0.000481607 0.00135083 
0.00140803 0.000413141 -0.00253001 
-0.000203607 7.78455e-05 0.000992123 
-0.00918201 -0.00287863 0.00311883 
-0.000764736 -0.000670757 -0.00224922 
0.0004977 0.000861689 0.00151659 
0.000297212 -1.96658e-05 -0.000774509 
0.00118082 0.000195852 0.000118259 
0.000607553 -0.0001464 -0.00032945 
-0.00089467 -3.17177e-05 -0.00127317 
-0.00136601 -0.00263316 -0.000923905 
0.000786561 -0.00060301 0.000235178 
-0.00119481 0.000410259 -0.000999339 
0.000348985 0.000706863 -0.000455113 
-0.000412411 0.000110763 -0.00142644 
0.000266377 -5.96045e-05 0.000951333 
-0.000464827 0.000121625 0.000220152 
-0.000233334 -0.000600625 0.000645973 
-0.000428969 -0.000102937 6.39184e-05 
-0.000154616 0.000555508 -0.000158247 
-0.000199566 -0.000527452 -0.000517675 
0.000545197 -0.00113725 -0.000119322 
-0.000653777 0.000591475 -0.00050801 
0.000868455 -2.65822e-05 0.000236719 
-5.16897e-07 0.000639808 -0.000950546 
0.00721089 0.000261887 -0.00135695 
0.000710059 0.000550597 -3.53648e-05 
0.00102432 0.000900601 2.78757e-05 
-0.000240708 0.000709602 -7.18664e-05 
0.00101684 -8.45852e-05 -0.000331653 
0.000101305 0.00017674 0.000345823 
0.00239635 0.0018681 0.00110284 
0.000735068 0.000170454 0.000794242 
-0.000249118 -0.000396073 0.00074367 
0.00151508 -0.000499973 0.000747755 
-0.000419197 -0.00109941 -5.58495e-05 
0.000452119 -0.000591467 0.000838812 
-0.000659355 -0.000226323 0.000281519 
-0.000332339 0.000757962 0.000255584 
0.000731746 -0.00103523 -0.000746099 
0.000300488 -0.000508218 -0.00108923 
0.000197863 0.000673983 0.00175379 
5.3432e-05 0.000600382 0.00063635 
-0.000331687 -7.35334e-05 -0.000622827 
-8.72983e-05 0.00091528 0.000262233 
-0.000206812 0.000476276 -0.000752553 
-0.000812943 0.000752163 0.000601881 
8.96466e-05 0.000271065 0.000196293 
-0.00139243 0.000211928 -0.00123802 
0.000895348 -0.000789406 0.000735761 
0.00161217 0.00179875 0.00141121 
0.00109535 0.000216424 -0.000291663 
-0.000599115 -0.000354304 -0.000366144 
6.97148e-05 7.97538e-05 1.39752e-05 
0.000619801 3.85272e-05 0.000920553 
5.99697e-05 -0.000282223 -0.000931711 
0.000465702 0.00079194 0.000256079 
0.000801742 -0.000570811 -5.11127e-05 
-0.000759896 0.000993954 -0.000456951 
-0.00164961 -0.00176968 0.00125044 
0.000685495 -0.000696528 0.00078372 
-0.000586787 -7.764e-05 0.000382788 
0.000524631 -1.64597e-05 8.59021e-05 
-0.00189766 0.000957553 -0.000182366 
-0.00244658 0.000805752 0.00056196 
0.000661862 0.00113976 0.000426624 
-0.000658356 0.00110516 -0.000712365 
-0.000167057 -0.000232392 0.000463996 
0.000521345 0.000884503 0.0010505 
0.000613337 -0.000798654 0.00118634 
0.000542278 -0.000129397 -0.00122148 
-0.000780904 0.000591739 2.12241e-05 
0.000417211 0.000178973 0.00119969 
0.000648555 0.00012463 0.0010043 
-0.00130869 1.94463e-05 0.000813739 
-0.000925976 0.00110762 -0.00147552 
-7.88277e-05 -0.000632747 -0.000108369 
-0.000109426 -0.000476726 0.000680744 
-0.000506633 0.000291515 0.000579592 
-0.00036539 -0.000845953 -0.00145467 
0.000919826 0.000127218 -0.000842504 
0.000642316 -0.000128093 0.00103176 
-0.00010087 -0.000918847 -0.000573169 
0.00116447 0.000892831 0.000393427 
6.06437e-05 0.000481143 -0.000704104 
2.00438e-05 -0.000246862 6.99563e-05 
-0.00159968 0.000463913 0.00120779 
-0.000729686 0.000504385 0.00127717 
-0.00103097 -0.000456316 0.000365638 
0.000756986 -0.00247083 0.00219793 
0.000382587 -0.000436936 -0.000287179 
-0.00200237 -0.000558386 0.000147144 
0.00104055 -0.00214668 1.892e-05 
-0.00266295 0.00104062 -1.37172e-05 
-0.00106493 0.000549981 -0.00110338 
0.000395157 0.000198243 -0.000352238 
-0.00102311 -0.000687653 0.000233573 
4.15843e-05 0.00038031 -5.84917e-05 
0.000262509 0.000264752 0.000986911 
0.00136943 6.72487e-05 0.000941843 
0.000164781 9.22003e-05 -0.000116322 
0.00228337 -0.00146882 -0.000186217 
-0.000144866 0.000229005 0.000456819 
-0.000156752 -0.000960162 -0.00124264 
ITEM: TIMESTEP
534
ITEM: NUMBER OF ATOMS
256
ITEM: BOX BOUNDS
0 6.3454
0 6.3454
0 6.3454
ITEM: ATOMS fx fy fz 
-0.000529891 1.45125e-05 0.000294522 
-4.97968e-05 -0.00244988 -0.00162044 
-7.74164e-05 -0.000716347 -0.000392215 
0.000293274 -0.000458681 -6.93195e-05 
0.00103468 0.000135069 0.00130211 
-0.00178008 -0.000389298 0.000961257 
0.000762332 -0.000167143 0.00017345 
0.000117675 -4.33002e-05 0.000236146 
0.000418933 -0.00101647 0.000682493 
0.00110476 1.85183e-05 -0.000393607 
-0.000437533 -0.000150029 -0.000933262 
0.00146091 0.00044685 0.000222708 
0.00116497 -0.000666628 0.000216438 
0.000596954 0.000329358 -0.000797579 
0.000690464 0.00069442 0.00136006 
-4.44488e-05 -0.000693554 0.000681267 
0.00146287 -0.000223284 0.000197152 
0.000986445 0.00033081 0.000948015 
-0.000385307 -0.000856892 -0.000812416 
-3.40315e-05 0.000226378 0.000641681 
-0.000842223 0.000473948 0.000519903 
-0.0037813 1.30095e-05 -0.00204928 
-0.000347921 0.000387645 0.000166454 
-0.00122661 6.41285e-05 -0.000578712 
0.00139886 0.00110886 0.000621673 
-0.00123121 0.00022829 0.000204993 
-0.000266953 -0.000244836 0.000124623 
-0.000233425 0.000435538 0.00051686 
-0.000236542 -0.000747646 -0.000124 
0.00052612 -0.000671059 -0.00116649 
4.34643e-05 -0.000339899 0.000590858 
-5.42683e-05 -0.000936092 -0.00127772 
-0.000558759 3.98774e-05 -5.01512e-05 
-0.000799075 -0.00104669 -0.00119941 
0.000196308 -0.00117655 0.000798908 
0.000550551 -0.000628094 -0.000323697 
0.000615991 0.000406045 0.000894142 
0.000491702 -5.61761e-05 0.000667865 
0.000724341 8.98777e-05 0.000128988 
0.000526264 0.000230892 0.000202756 
0.000198196 1.16935e-05 -0.000143501 
-0.00292256 -0.000545078 0.0079302 
-9.75377e-05 -0.000179097 0.000795137 
-0.00204808 0.00095295 -0.000593787 
3.78908e-05 -0.000788639 4.10595e-06 
-0.00167131 0.00140877 -0.000792216 
-0.00122025 -0.000482799 -0.000654411 
-7.43568e-05 -0.000932352 -0.00145484 
0.0004048 0.000100619 -0.000757815 
0.000477181 -0.000423564 0.00153371 
-0.00101183 -0.00108653 -5.39612e-05 
0.00048175 -0.000505748 -0.000558015 
-0.000263799 0.0010301 -0.00117499 
0.000349762 -0.000184108 0.00100479 
0.000843862 0.000814675 -0.000221003 
0.000339444 0.000346819 9.94106e-05 
-0.0019874 0.00161133 0.000510451 
-0.00118236 0.00064719 -0.000900141 
6.06697e-05 -0.000379458 9.25658e-05 
-0.000305419 -0.000187596 -2.41687e-05 
0.000462046 -0.000293853 -0.000305682 
0.000811736 0.000182921 -0.000376209 
0.00239237 -0.00180181 -0.00212545 
0.00075079 -0.000708383 5.4961e-05 
0.000112745 -0.000828236 0.000678125 
-0.000821147 0.00124826 0.000957656 
-0.000734439 -0.00113431 -0.000433838 
0.003152 0.000877928 -3.87535e-05 
0.000760205 0.000165557 0.000646998 
-0.000388291 0.00197704 -0.00175171 
0.00017866 0.000237259 0.000158832 
-0.000137127 -0.0010019 0.000305742 
0.000511105 0.000231353 0.000352264 
0.000933644 0.000804761 -0.000311526 
6.6304e-05 -0.00051927 4.37518e-05 
-0.00120992 -0.000659162 0.000180721 
7.09095e-05 -4.39923e-05 -0.000555544 
-0.00165758 -0.000923457 -0.000318114 
0.00171236 -0.00158044 -0.00330396 
-0.00030578 0.000548653 0.00146099 
0.0012796 0.000890878 0.000896787 
-0.00578144 -0.00284868 -0.000586075 
-9.21841e-06 0.000839065 0.00025227 
-0.000779415 0.000168898 0.000988918 
0.000565399 0.000233788 0.000264595 
0.000299719 0.00150976 -0.000867409 
-0.000153387 -0.00154949 -0.000103891 
0.000620972 0.0012955 -0.000173011 
-0.00312099 -0.00128924 0.000477532 
-0.000229845 -0.000982436 7.81549e-06 
-0.000524705 0.000625752 -0.000727385 
0.000681486 0.000840621 0.000273237 
-0.000876248 -9.17277e-06 -0.000245719 
7.14628e-05 0.00129628 -0.000287331 
-0.000896659 -0.000594316 0.00173808 
-0.010761 0.000197124 0.0118726 
0.000319741 -0.000678681 -7.60909e-05 
-0.00153632 0.00191936 0.000874456 
-0.00045923 -0.000294382 -0.000419907 
0.000157521 0.000557969 0.000999676 
-0.000557237 0.000258635 0.000761564 
0.00128081 0.000662354 0.000594777 
0.000974114 -0.000268964 0.000471453 
1.59862e-05 -0.00244086 0.0038403 
-0.000708325 -0.000343982 0.000255623 
0.003627 0.00145445 -0.000453335 
0.00881521 0.00243595 -0.00219239 
-0.000391454 0.000798346 -0.000250793 
0.000735516 0.000661812 -0.00023964 
-0.000639209 -4.98649e-05 0.00012481 
0.000512211 0.000523323 -0.00168679 
0.00044035 -0.00039023 0.000545892 
0.000599172 -0.000462229 0.00038215 
-0.0013486 0.000532684 3.79494e-05 
0.00077424 6.35537e-05 0.00119136 
0.000963306 0.000315509 -0.00525624 
0.000287641 -0.000988454 -0.00190399 
0.000444374 -9.50237e-05 5.70573e-05 
-0.000802552 0.00102144 -0.00208002 
-3.59075e-05 -0.000232213 0.00172245 
0.00164624 0.00246678 -8.09287e-05 
-0.00264308 0.0019906 0.000482386 
0.0024342 0.00207646 -0.00210619 
0.000576476 0.000366924 -0.000376728 
-0.000293004 -0.000599969 -0.000392606 
-0.000377153 2.59265e-05 3.3819e-05 
-0.000716998 -0.00037711 -0.00130067 
-0.00161105 -0.000409815 -0.000599796 
5.22458e-05 7.59903e-05 0.000342617 
0.0010073 -0.000385851 0.000696998 
-0.00055505 0.000432956 -0.000930576 
0.000827384 -0.000386833 7.71716e-05 
0.00153343 0.003013 0.00105142 
0.000737165 4.41529e-05 -0.000667584 
0.00475213 0.00175448 -0.0182278 
-0.00110201 -0.000463444 0.000759939 
-0.000419255 0.000744966 -0.000423181 
0.000347125 0.000124553 9.34249e-05 
-0.00109547 -0.000288021 -0.000257776 
-0.000234377 -0.00022533 -0.000194886 
0.000933622 -1.52588e-05 -0.000936615 
-0.000724402 -0.000508409 0.000549386 
0.000986849 -0.000400355 0.00106136 
0.00036289 -0.0010493 0.0010691 
0.000673794 -0.00111944 -0.000408667 
5.90843e-05 -0.000101794 -0.00020826 
-0.000455984 0.000367184 0.00120104 
0.000858716 9.62187e-05 0.000135407 
-0.000429375 -0.000276212 0.000201902 
-0.000437923 -0.000128164 -1.20331e-05 
0.00048724 -0.000802555 -0.000755391 
0.00146315 0.000514192 -0.00139638 
-0.000613905 -0.000481812 0.00134773 
0.00139723 0.000417213 -0.00249926 
-0.000201684 7.60756e-05 0.000991585 
-0.00907026 -0.00285108 0.00307418 
-0.000758832 -0.000668054 -0.00222188 
0.000498979 0.000858658 0.001515 
0.000296971 -1.84136e-05 -0.000776709 
0.00117842 0.000195814 0.000117704 
0.000607099 -0.000146506 -0.000329032 
-0.000893697 -3.11176e-05 -0.00127109 
-0.0013643 -0.00263096 -0.000922728 
0.000783645 -0.000601598 0.000235689 
-0.00119222 0.000411685 -0.000996683 
0.000347028 0.000707455 -0.000453193 
-0.000411835 0.000104696 -0.00141149 
0.000265973 -6.10951e-05 0.00094942 
-0.000465302 0.000121906 0.000218486 
-0.000237678 -0.000600373 0.000641078 
-0.00042808 -0.000103067 6.33421e-05 
-0.000153681 0.00054983 -0.000158655 
-0.00019948 -0.00052432 -0.000517602 
0.000544911 -0.00113353 -0.000119624 
-0.000652956 0.000590331 -0.000507291 
0.000869428 -2.51103e-05 0.000234325 
-9.09545e-07 0.000638995 -0.000947454 
0.00710576 0.000256212 -0.00133943 
0.000711687 0.000550732 -3.40179e-05 
0.00102246 0.000899374 2.77937e-05 
-0.000232392 0.000712437 -7.44885e-05 
0.00101572 -8.376e-05 -0.000327758 
0.000100823 0.000185501 0.000346662 
0.00237793 0.00184957 0.00108895 
0.000734936 0.00016931 0.000792886 
-0.000250398 -0.000396921 0.000740357 
0.00151259 -0.000497733 0.00073887 
-0.000418125 -0.00109713 -5.54758e-05 
0.000454435 -0.000589856 0.000837073 
-0.000658044 -0.000223376 0.000279901 
-0.00033284 0.000756317 0.000254836 
0.000730934 -0.00103339 -0.000743089 
0.000299999 -0.000507031 -0.00108753 
0.000198902 0.00067175 0.00175174 
5.33998e-05 0.00059663 0.000636939 
-0.000326005 -7.47425e-05 -0.000618383 
-8.70698e-05 0.000914669 0.000257775 
-0.000205362 0.000475095 -0.000750857 
-0.000810009 0.000752392 0.000601093 
8.9817e-05 0.00027012 0.000196244 
-0.00139261 0.000210767 -0.00123504 
0.000892849 -0.00078789 0.000732553 
0.00160836 0.0017964 0.00140582 
0.00109285 0.000217875 -0.000291437 
-0.000598623 -0.000353724 -0.000364798 
7.24351e-05 8.31223e-05 1.03643e-05 
0.000619409 3.93358e-05 0.000919313 
5.62384e-05 -0.000283544 -0.000930274 
0.000465203 0.000789602 0.000256037 
0.000797964 -0.000569252 -5.14937e-05 
-0.000757413 0.000992615 -0.000455749 
-0.00165036 -0.00176709 0.00125156 
0.00068455 -0.000693499 0.000782161 
-0.000586511 -7.76179e-05 0.000381359 
0.000523322 -1.65886e-05 8.64835e-05 
-0.00189025 0.000955728 -0.000174884 
-0.00244644 0.000803576 0.000562077 
0.000660041 0.00113401 0.000429324 
-0.000656425 0.00110092 -0.000716661 
-0.000169701 -0.000234915 0.000464475 
0.000521558 0.000882719 0.00105077 
0.000612314 -0.000796139 0.00118483 
0.00053955 -0.00013267 -0.00121637 
-0.000779972 0.000588799 2.36818e-05 
0.000416899 0.000177916 0.00119844 
0.000648562 0.00012413 0.00100228 
-0.00130782 1.12866e-05 0.00081675 
-0.000923987 0.00110496 -0.00147437 
-7.76134e-05 -0.000628849 -0.000109432 
-0.000109072 -0.000475673 0.000678883 
-0.00050614 0.000291795 0.000580536 
-0.000366243 -0.000846284 -0.0014565 
0.000919255 0.000130459 -0.000843878 
0.000640772 -0.000124649 0.00102948 
-0.000100751 -0.000916101 -0.000571049 
0.00115866 0.000898624 0.000385496 
6.30657e-05 0.000477211 -0.000705508 
2.08605e-05 -0.00024589 6.88333e-05 
-0.00159629 0.000463023 0.0012062 
-0.000720275 0.00049745 0.00125344 
-0.00103081 -0.000453981 0.000363532 
0.000734811 -0.00245005 0.00219558 
0.000380328 -0.000436315 -0.000286278 
-0.0019998 -0.000559002 0.000147604 
0.00102381 -0.00213009 3.73825e-06 
-0.00265809 0.00103795 -1.47176e-05 
-0.00106409 0.000549043 -0.00110281 
0.000394305 0.000197874 -0.000351468 
-0.00102087 -0.000685826 0.000234489 
4.24773e-05 0.000380569 -5.8592e-05 
0.00026332 0.000264637 0.000984545 
0.00136621 6.63228e-05 0.000939666 
0.000164414 9.23211e-05 -0.000115262 
0.00227654 -0.00146602 -0.000183831 
-0.000143709 0.000227336 0.000456414 
-0.000159426 -0.000953427 -0.0012413 
