
256 atoms
1 atom types	

0.0 6.3454 xlo xhi
0.0 6.3454 ylo yhi
0.0 6.3454 zlo zhi

Masses

1 1.0

Atoms				

1	1	3.1558	2.1163	5.9646
2	1	5.2926	3.7143	3.8746
3	1	3.8126	1.001	0.47284
4	1	5.7694	0.78996	5.0516
5	1	4.5389	1.0136	1.3283
6	1	4.8071	3.2811	3.0286
7	1	4.3097	3.7945	2.2221
8	1	4.5966	5.8604	6.1257
9	1	0.83965	2.1413	1.812
10	1	1.4533	3.5868	5.2778
11	1	5.4995	2.6676	1.1671
12	1	3.1551	0.20145	2.4573
13	1	6.2027	3.7804	1.9013
14	1	3.4226	5.9992	3.4224
15	1	6.0296	5.3344	0.68601
16	1	3.4196	2.7225	5.0293
17	1	5.4272	6.1553	2.4792
18	1	2.5507	0.6597	1.5059
19	1	4.9789	3.2109	5.7762
20	1	2.201	2.6376	6.0369
21	1	1.2067	1.0398	5.8892
22	1	1.6719	4.7565	3.3998
23	1	5.54	1.1912	6.0039
24	1	3.7865	0.5333	5.1543
25	1	4.3722	2.6969	2.2102
26	1	4.7402	1.7427	4.0655
27	1	4.6538	4.7505	6.1439
28	1	6.2603	0.066503	0.57941
29	1	3.8438	3.2509	0.46047
30	1	1.572	2.0053	2.5677
31	1	1.073	1.0916	2.2969
32	1	2.5691	3.7722	4.2238
33	1	3.608	3.8023	1.3975
34	1	5.8234	0.58382	3.2093
35	1	5.0563	4.1742	5.2188
36	1	1.1974	5.2898	6.1091
37	1	1.9466	2.1392	0.61195
38	1	0.61112	0.11016	1.4619
39	1	3.8404	2.7399	3.1818
40	1	2.3295	4.2605	5.1631
41	1	4.3602	4.1664	4.1441
42	1	6.2556	2.6856	1.9507
43	1	1.5198	5.8721	3.3413
44	1	3.5626	3.3433	4.1231
45	1	5.9574	6.0252	5.1695
46	1	1.8982	1.9357	4.2771
47	1	2.8622	0.46175	0.52841
48	1	2.4829	2.6553	2.4401
49	1	2.6911	3.2256	1.5063
50	1	4.8903	5.3255	3.4491
51	1	3.8169	3.8431	3.2113
52	1	2.8805	4.8857	0.56734
53	1	0.35841	1.2112	3.0733
54	1	0.89638	0.58706	0.48692
55	1	1.942	4.2779	0.65684
56	1	4.3255	0.11558	0.69847
57	1	2.0928	1.4312	3.3218
58	1	5.7733	3.8782	2.8972
59	1	6.1231	0.2335	4.1953
60	1	3.9973	4.6795	5.2233
61	1	3.345	5.8528	0.81844
62	1	1.3237	4.1501	2.5419
63	1	5.8322	1.3047	4.0275
64	1	3.3284	4.3261	2.3617
65	1	5.2316	4.3019	2.0623
66	1	0.48089	2.2952	2.7964
67	1	5.7163	3.1762	0.19406
68	1	3.8026	4.9433	3.3174
69	1	3.6317	2.6962	1.3841
70	1	4.7943	4.3466	3.0968
71	1	5.6953	2.0736	0.27116
72	1	0.17783	1.6215	4.8332
73	1	5.49	1.5588	1.2277
74	1	2.1867	3.721	6.091
75	1	5.3068	5.8666	0.66022
76	1	4.393	0.46324	2.2758
77	1	1.9783	3.2044	0.69209
78	1	2.5492	5.4076	3.3817
79	1	5.297	3.2305	2.0742
80	1	1.8629	1.2168	0.56995
81	1	0.81275	3.232	1.7616
82	1	2.7873	4.347	3.3298
83	1	0.45755	1.2988	3.3236
84	1	1.3427	0.65775	3.2749
85	1	2.65	1.0643	1.4473
86	1	1.9406	5.6498	5.3412
87	1	5.6062	5.3217	6.1146
88	1	0.2807	4.5628	2.6151
89	1	3.7165	2.1925	4.1194
90	1	0.15605	0.564	5.9859
91	1	3.063	0.39202	4.237
92	1	0.10612	0.43276	2.3556
93	1	3.6024	0.86988	6.1658
94	1	4.8122	2.2172	3.0895
95	1	6.0361	4.8834	5.2009
96	1	5.5117	2.4797	3.8912
97	1	4.7707	2.6774	0.37182
98	1	0.62901	5.2443	3.4412
99	1	4.0712	3.8249	5.8903
100	1	4.2841	4.8851	2.2827
101	1	1.0106	3.7217	0.78127
102	1	2.1854	5.8794	2.4461
103	1	1.2658	2.1331	5.6691
104	1	5.6549	4.227	6.1945
105	1	2.1752	1.5511	5.9867
106	1	6.1982	3.3125	3.7196
107	1	1.8332	3.6649	3.4112
108	1	5.8857	5.8039	3.4159
109	1	3.5724	1.6246	5.0825
110	1	5.8292	1.5517	2.0743
111	1	0.52849	0.45904	5.018
112	1	6.0074	5.926	1.568
113	1	4.5251	4.3725	1.288
114	1	4.2874	3.4172	4.9356
115	1	0.18059	5.6829	2.5098
116	1	5.2821	3.0773	4.7664
117	1	0.090054	2.0883	1.0553
118	1	2.6366	5.8077	6.1244
119	1	4.5542	3.2531	1.2836
120	1	0.96138	1.6929	0.38287
121	1	0.41595	3.4082	2.74
122	1	3.0343	0.9834	3.2639
123	1	1.7215	3.0666	4.3434
124	1	3.1168	4.3321	5.9893
125	1	3.8352	4.3691	0.46662
126	1	4.8408	0.10118	5.1823
127	1	0.56056	4.6333	4.419
128	1	6.0927	4.6222	3.6139
129	1	2.9547	5.1626	5.3166
130	1	3.8406	2.1208	0.45486
131	1	2.8609	3.2365	3.295
132	1	4.0649	5.8654	1.6813
133	1	1.5524	4.1703	4.3271
134	1	1.5827	5.8623	1.5343
135	1	5.8115	2.7846	2.9162
136	1	1.7239	3.7453	1.6092
137	1	6.0936	1.1743	0.49866
138	1	3.1754	1.017	5.9372
139	1	0.77421	4.0782	3.5134
140	1	4.3505	5.3146	0.73609
141	1	3.4634	2.1528	2.3162
142	1	4.6481	1.2332	5.1291
143	1	2.4402	3.1721	5.1356
144	1	5.6173	5.0662	2.6719
145	1	3.5785	4.9081	1.4297
146	1	0.30812	3.6449	5.8193
147	1	3.9148	5.7921	5.245
148	1	0.89712	5.8657	0.61638
149	1	5.2933	0.63806	0.60094
150	1	4.0595	2.6938	5.8838
151	1	3.6185	1.5882	1.3772
152	1	3.2525	5.3901	2.4403
153	1	1.1314	1.795	3.5568
154	1	0.70408	3.4905	4.4738
155	1	6.0585	4.8409	1.6624
156	1	0.95444	2.9152	3.5754
157	1	1.4552	3.0733	2.593
158	1	1.7244	1.6085	1.5397
159	1	0.57088	2.9568	5.4454
160	1	2.1621	4.8284	6.0576
161	1	1.9004	5.3334	0.63949
162	1	2.8606	5.9173	5.2598
163	1	5.4714	1.9076	4.8565
164	1	3.1368	3.2329	5.9726
165	1	1.0302	2.6445	0.87324
166	1	1.3601	4.7357	5.2121
167	1	0.084749	3.1921	0.98156
168	1	0.24094	1.6362	5.8941
169	1	3.2201	5.6409	4.3927
170	1	4.7803	3.8049	0.34604
171	1	3.9181	1.0733	4.1923
172	1	1.1842	4.8932	5.9763
173	1	0.76633	5.6851	5.1327
174	1	4.9943	0.67538	4.2524
175	1	4.5404	0.65153	6.0803
176	1	1.2242	5.2394	2.4867
177	1	2.2041	0.4541	5.9908
178	1	4.5345	2.9062	3.9925
179	1	4.4365	1.5828	2.2542
180	1	2.5271	0.98677	5.0736
181	1	6.2649	2.7313	4.6426
182	1	1.646	0.31256	5.0736
183	1	5.7718	1.7147	3.0325
184	1	5.3423	2.1353	2.1271
185	1	5.0543	0.099209	1.5235
186	1	3.3649	4.5531	4.2613
187	1	0.60199	0.97921	4.0674
188	1	5.529	0.13325	6.0581
189	1	2.5511	1.5866	2.3776
190	1	1.9668	0.78934	4.1615
191	1	4.2625	5.2501	4.3247
192	1	5.06	5.3454	1.6662
193	1	2.9044	3.7821	0.56829
194	1	5.968	3.5104	5.4768
195	1	2.1029	0.62862	2.4162
196	1	5.4821	3.769	1.127
197	1	4.9304	2.0656	5.8186
198	1	3.5758	0.45541	1.4152
199	1	2.3563	4.9302	4.3341
200	1	3.6495	5.2739	6.195
201	1	4.9153	0.64824	3.4019
202	1	0.21419	5.8292	6.0624
203	1	2.9494	2.1095	3.2805
204	1	1.2287	4.2061	6.164
205	1	4.9547	5.3182	5.2243
206	1	4.4451	2.3356	4.918
207	1	1.5793	0.57011	1.4672
208	1	2.3909	0.1555	3.3527
209	1	6.0178	0.66609	1.4238
210	1	3.3941	3.2431	2.3327
211	1	1.2599	3.0975	6.2509
212	1	0.94085	2.3583	4.5714
213	1	5.3504	4.7795	0.73347
214	1	3.3113	3.8324	5.0616
215	1	2.8772	1.5737	0.51965
216	1	2.7232	2.6481	4.1998
217	1	2.8825	1.5045	4.1974
218	1	2.6925	2.145	1.4605
219	1	1.7696	2.6721	1.6373
220	1	5.2937	4.7791	4.3202
221	1	4.5641	2.13	1.3038
222	1	5.3746	0.96807	2.2301
223	1	2.646	4.2985	1.5102
224	1	6.0546	3.9925	4.5482
225	1	4.7525	1.5435	0.39083
226	1	0.63422	5.3762	1.5728
227	1	1.0764	2.3977	4.2047
228	1	0.31098	2.5654	0.088278
229	1	2.5948	5.3497	1.5355
230	1	1.7291	4.2599	0.78907
231	1	4.1379	4.7458	4.2435
232	1	5.9162	2.4699	5.642
233	1	2.2815	4.803	2.4641
234	1	0.72482	4.3084	1.6489
235	1	2.5153	2.0824	5.1135
236	1	1.137	3.6587	2.4137
237	1	0.49504	4.1038	5.3442
238	1	1.6532	4.8063	1.5768
239	1	2.189	6.0403	4.3208
240	1	2.3845	3.7341	2.4566
241	1	2.7358	5.5378	4.3148
242	1	0.15973	2.115	3.7995
243	1	1.2674	1.3238	4.8654
244	1	5.2381	5.8987	4.3277
245	1	1.973	2.563	3.4037
246	1	3.9762	0.5267	3.2532
247	1	1.362	5.3243	4.2885
248	1	1.8892	1.0754	0.56088
249	1	0.25526	4.7528	6.1648
250	1	3.9119	1.6248	3.2157
251	1	3.497	1.0778	2.309
252	1	2.9108	2.6812	0.5429
253	1	0.95115	4.7959	0.70138
254	1	4.2471	5.8521	2.7449
255	1	0.66424	1.1969	1.3205
256	1	4.8758	1.1146	3.1928
