
#------------ NVE rescale -----------------------------------------
	velocity 	all create ${T_run} ${seed} rot yes dist gaussian
	velocity 	all create 0.124010515 ${seed} rot yes dist gaussian
	velocity 	all create 0.124010515 1111 rot yes dist gaussian
	fix 		1 all nve
	fix 		2 all temp/rescale 1 ${T_run} ${T_run} 0.01 1.0
	fix 		2 all temp/rescale 1 0.124010515 ${T_run} 0.01 1.0
	fix 		2 all temp/rescale 1 0.124010515 0.124010515 0.01 1.0
	timestep	${dt}
	timestep	0.002
	thermo_style  	custom step temp press etotal vol
	thermo		1000
	run             100000	
Memory usage per processor = 1.37333 Mbytes
Step Temp Press TotEng Volume 
       0   0.12401052  -0.58426752   -6.6768437    255.49183 
    1000   0.12028523   0.50055766   -6.4890794    255.49183 
    2000   0.11932114   0.45773906   -6.4891013    255.49183 
    3000   0.12490369   0.44294603   -6.4890433    255.49183 
    4000    0.1249173   0.44503616    -6.489016    255.49183 
    5000   0.12181992   0.38125547   -6.5042295    255.49183 
    6000   0.12472326   0.37945643   -6.5041516    255.49183 
    7000   0.12135751   0.39823093   -6.5049293    255.49183 
    8000   0.12099089   0.47184481   -6.4898339    255.49183 
    9000   0.12547185   0.44894472   -6.4900662    255.49183 
   10000    0.1240851   0.42716778   -6.4900227    255.49183 
   11000   0.11905898   0.39162897    -6.505693    255.49183 
   12000   0.12705333   0.40271366   -6.4910345    255.49183 
   13000   0.11867154   0.38662583   -6.5059901    255.49183 
   14000   0.13094881    0.4010333   -6.4899109    255.49183 
   15000   0.13288707   0.41640569   -6.4896776    255.49183 
   16000   0.11606261    0.3879188    -6.505503    255.49183 
   17000   0.12630682   0.42618752   -6.4918401    255.49183 
   18000   0.12445365    0.4320937   -6.4918392    255.49183 
   19000   0.11990298   0.45106727    -6.492861    255.49183 
   20000   0.11815411   0.46766517   -6.4935723    255.49183 
   21000   0.11468208   0.49685973   -6.4935762    255.49183 
   22000   0.13061986   0.40832553   -6.4939562    255.49183 
   23000   0.11756425    0.5176881   -6.4940866    255.49183 
   24000   0.12049198    0.4748885   -6.4940833    255.49183 
   25000   0.12759047   0.42543691   -6.4940821    255.49183 
   26000   0.12977425   0.42671042   -6.4940884    255.49183 
   27000    0.1323374   0.40102739   -6.4944292    255.49183 
   28000   0.12325169   0.50305467   -6.4941745    255.49183 
   29000   0.12331818   0.46478376   -6.4941746    255.49183 
   30000   0.12000299   0.48500578   -6.4942241    255.49183 
   31000   0.12448835   0.42309976   -6.4944974    255.49183 
   32000   0.12504351   0.45335914   -6.4946801    255.49183 
   33000   0.11669313   0.53773588   -6.4944288    255.49183 
   34000   0.12244982   0.46711067   -6.4944271    255.49183 
   35000   0.12825542    0.4415534   -6.4940568    255.49183 
   36000   0.12599597   0.44893522   -6.4940557    255.49183 
   37000   0.11951787   0.45327233   -6.5092904    255.49183 
   38000   0.13078732   0.40462892    -6.494346    255.49183 
   39000   0.11948391   0.48416996   -6.4943414    255.49183 
   40000   0.12678656   0.43919467   -6.4948076    255.49183 
   41000   0.12842456   0.42907875   -6.4948364    255.49183 
   42000   0.12033284   0.40298268   -6.5099837    255.49183 
   43000   0.12626009   0.43279386   -6.4948896    255.49183 
   44000   0.12270587   0.46008018   -6.4953414    255.49183 
   45000    0.1225947   0.36892778   -6.5105276    255.49183 
   46000   0.12000778   0.37290385   -6.5100112    255.49183 
   47000   0.12102276   0.49993036   -6.4947927    255.49183 
   48000   0.12471108    0.4501649   -6.4944699    255.49183 
   49000   0.12904991   0.42667445   -6.4941909    255.49183 
   50000   0.12345988   0.49658181   -6.4950754    255.49183 
   51000   0.12806621   0.42804016    -6.495115    255.49183 
   52000   0.12752593   0.42730966   -6.4954441    255.49183 
   53000   0.13063545   0.39540623   -6.4961113    255.49183 
   54000   0.11909018   0.50058776   -6.4958403    255.49183 
   55000   0.12555447   0.41672821   -6.4953574    255.49183 
   56000   0.12292561   0.47259811   -6.4950704    255.49183 
   57000   0.12842606   0.41718985   -6.4946231    255.49183 
   58000   0.11927465   0.46342119   -6.4948518    255.49183 
   59000   0.12662252   0.44655325   -6.4942707    255.49183 
   60000   0.12891883   0.43221511   -6.4935819    255.49183 
   61000   0.12044568   0.44116376   -6.5086979    255.49183 
   62000   0.12029736   0.48456674   -6.4936244    255.49183 
   63000    0.1321879   0.39932623   -6.4938293    255.49183 
   64000   0.12768326   0.42679065   -6.4938189    255.49183 
   65000   0.11801849   0.50142148   -6.4946551    255.49183 
   66000   0.12545264   0.37737684   -6.5101205    255.49183 
   67000   0.11781155   0.51223321   -6.4945756    255.49183 
   68000   0.13108766    0.3778328   -6.4946458    255.49183 
   69000   0.12524436   0.35427038   -6.5093937    255.49183 
   70000   0.12438247   0.44462911   -6.4934148    255.49183 
   71000   0.12159288   0.42259594   -6.5090828    255.49183 
   72000   0.12753803    0.4320367   -6.4936663    255.49183 
   73000   0.12370746   0.47064346   -6.4936934    255.49183 
   74000   0.12744967   0.35581586    -6.508798    255.49183 
   75000   0.12124638   0.48667637   -6.4931866    255.49183 
   76000   0.12269587   0.51725452   -6.4777886    255.49183 
   77000   0.12270312   0.49745025   -6.4928012    255.49183 
   78000   0.12072771   0.49011995   -6.4926316    255.49183 
   79000   0.12638766   0.45842518   -6.4934383    255.49183 
   80000   0.12897311   0.31515828   -6.5083894    255.49183 
   81000   0.12477162   0.36624823   -6.5087238    255.49183 
   82000   0.12410134   0.30561841   -6.5234275    255.49183 
   83000   0.13358367  0.039470683   -6.5688182    255.49183 
   84000   0.12532853 -0.038405954   -6.5996854    255.49183 
   85000   0.12881769  -0.14629397   -6.6148561    255.49183 
   86000    0.1212456  -0.16452992   -6.6304143    255.49183 
   87000   0.12263798    -0.185066    -6.630279    255.49183 
   88000   0.13039536   -0.2705118    -6.630607    255.49183 
   89000   0.11813085  -0.13724251   -6.6300899    255.49183 
   90000   0.12434674  -0.23525465   -6.6303829    255.49183 
   91000   0.11880813  -0.18753697   -6.6306891    255.49183 
   92000   0.12709216  -0.24182163   -6.6310953    255.49183 
   93000   0.12563315  -0.19244033   -6.6310161    255.49183 
   94000   0.11864523  -0.12724565   -6.6310141    255.49183 
   95000   0.12408551  -0.22069935   -6.6314214    255.49183 
   96000   0.11975574  -0.17137364   -6.6319009    255.49183 
   97000   0.12886829  -0.20354917   -6.6315972    255.49183 
   98000   0.12075574  -0.13186576   -6.6164827    255.49183 
   99000   0.12796515  -0.19712617   -6.6158541    255.49183 
  100000   0.11819606  -0.16290612    -6.630951    255.49183 
Loop time of 27.3645 on 1 procs for 100000 steps with 256 atoms

Pair  time (%) = 24.3301 (88.9115)
Neigh time (%) = 0.853844 (3.12027)
Comm  time (%) = 1.20925 (4.41904)
Outpt time (%) = 0.00356388 (0.0130238)
Other time (%) = 0.967655 (3.53617)

Nlocal:    256 ave 256 max 256 min
Histogram: 1 0 0 0 0 0 0 0 0 0
Nghost:    1441 ave 1441 max 1441 min
Histogram: 1 0 0 0 0 0 0 0 0 0
Neighs:    11324 ave 11324 max 11324 min
Histogram: 1 0 0 0 0 0 0 0 0 0

Total # of neighbors = 11324
Ave neighs/atom = 44.2344
Neighbor list builds = 1390
Dangerous builds = 0
#	run             1000
	unfix 		1
	unfix 		2
#------------ NVE -----------------------------------------------------------------------------	
	fix 		1 all nve
	timestep	${dt}
	timestep	0.002
	fix		myave all ave/atom 1 10000 100000 x y z
	dump		1 all custom 500000 x.dump f_myave[1] f_myave[2] f_myave[3]
	dump_modify 	1 sort id
	thermo_style  	custom step temp press etotal vol
	thermo		1000
	run             500000	
Memory usage per processor = 1.60807 Mbytes
Step Temp Press TotEng Volume 
  100000   0.11819606  -0.16290612    -6.630951    255.49183 
  101000   0.12253336  -0.18406177   -6.6309535    255.49183 
  102000    0.1277098   -0.2751474   -6.6309576    255.49183 
  103000   0.12019883  -0.15182707   -6.6309612    255.49183 
  104000    0.1268618  -0.13841535   -6.6309694    255.49183 
  105000   0.12233318 -0.086129063   -6.6309633    255.49183 
  106000    0.1189983  -0.12840364   -6.6309694    255.49183 
  107000   0.12139965  -0.17763959   -6.6309732    255.49183 
  108000   0.13150615  -0.23547018   -6.6309857    255.49183 
  109000   0.12278063  -0.22076396   -6.6309782    255.49183 
  110000    0.1249543  -0.21571679   -6.6309763    255.49183 
  111000   0.12718951  -0.23713728   -6.6309757    255.49183 
  112000   0.12239781  -0.21200286   -6.6309731    255.49183 
  113000   0.11802667  -0.18197528   -6.6309733    255.49183 
  114000     0.126251  -0.26996311   -6.6309824    255.49183 
  115000   0.12428711  -0.20059017   -6.6309785    255.49183 
  116000   0.13195246  -0.27566326   -6.6309802    255.49183 
  117000    0.1277683  -0.22933212    -6.630973    255.49183 
  118000   0.12201069  -0.21488434   -6.6309641    255.49183 
  119000   0.12696212  -0.22131636   -6.6309712    255.49183 
  120000   0.12906485  -0.23364017   -6.6309759    255.49183 
  121000   0.12666869   -0.2456696   -6.6309797    255.49183 
  122000   0.13133141  -0.27556736   -6.6309742    255.49183 
  123000    0.1243835  -0.22224435   -6.6309696    255.49183 
  124000   0.12580835   -0.2191208   -6.6309689    255.49183 
  125000    0.1258392  -0.27899009   -6.6309637    255.49183 
  126000   0.13352136  -0.32490826   -6.6309785    255.49183 
  127000    0.1217687  -0.19715005   -6.6309739    255.49183 
  128000   0.12928672   -0.2818697   -6.6309755    255.49183 
  129000     0.126974  -0.25294171   -6.6309868    255.49183 
  130000   0.12817325  -0.26668838   -6.6309889    255.49183 
  131000   0.12724188  -0.21702225   -6.6309859    255.49183 
  132000   0.12801934  -0.23488812   -6.6309931    255.49183 
  133000   0.12262956  -0.19330743    -6.630993    255.49183 
  134000   0.12404808  -0.21711389   -6.6309962    255.49183 
  135000   0.12937261  -0.25093882   -6.6309984    255.49183 
  136000   0.12383803  -0.22298183   -6.6309938    255.49183 
  137000   0.13146648  -0.27903502   -6.6309877    255.49183 
  138000    0.1270357  -0.24676735   -6.6309838    255.49183 
  139000   0.12381049  -0.25455224   -6.6309802    255.49183 
  140000   0.12005019  -0.15816795   -6.6309876    255.49183 
  141000   0.12283638  -0.23919771   -6.6309794    255.49183 
  142000   0.12750256  -0.20898062   -6.6309901    255.49183 
  143000   0.11707171  -0.17500186   -6.6309962    255.49183 
  144000   0.12240385  -0.21719887   -6.6309838    255.49183 
  145000   0.12571401  -0.21185746   -6.6309902    255.49183 
  146000   0.13379651  -0.28842184   -6.6309907    255.49183 
  147000   0.13040549  -0.27329519   -6.6309961    255.49183 
  148000   0.12097099  -0.18968891    -6.630995    255.49183 
  149000   0.12644677  -0.22916529   -6.6309952    255.49183 
  150000   0.12982714  -0.28550315   -6.6309933    255.49183 
  151000   0.12695879  -0.26773454     -6.63099    255.49183 
  152000    0.1263994  -0.26152623   -6.6309845    255.49183 
  153000   0.12923772  -0.28454955   -6.6309946    255.49183 
  154000   0.12819885  -0.24985501   -6.6309962    255.49183 
  155000   0.12774905   -0.2438494   -6.6309954    255.49183 
  156000   0.12479485  -0.25610916   -6.6310025    255.49183 
  157000   0.12315333  -0.20861836   -6.6309854    255.49183 
  158000   0.12667125  -0.22643956   -6.6309771    255.49183 
  159000   0.12385597  -0.22479835   -6.6309757    255.49183 
  160000   0.13083612  -0.24647706   -6.6309795    255.49183 
  161000   0.12693808  -0.27817842   -6.6309794    255.49183 
  162000   0.12599991  -0.21622374   -6.6309842    255.49183 
  163000   0.13478229  -0.30425858   -6.6309874    255.49183 
  164000   0.13025314  -0.25683162   -6.6309845    255.49183 
  165000   0.12547738  -0.23590589   -6.6309805    255.49183 
  166000    0.1335715  -0.29756633   -6.6309912    255.49183 
  167000   0.12864475  -0.25136853   -6.6309841    255.49183 
  168000    0.1361334  -0.31092611    -6.630981    255.49183 
  169000   0.11899393  -0.22034201   -6.6309879    255.49183 
  170000   0.12906587  -0.28210736   -6.6309974    255.49183 
  171000   0.12987276  -0.24490309   -6.6310051    255.49183 
  172000   0.12463718  -0.24970593   -6.6309948    255.49183 
  173000   0.11433018  -0.15815976   -6.6309843    255.49183 
  174000    0.1274753  -0.25029698    -6.630991    255.49183 
  175000   0.12812628  -0.23220493   -6.6309932    255.49183 
  176000    0.1241532  -0.17393199   -6.6309911    255.49183 
  177000    0.1343142  -0.29498847   -6.6309902    255.49183 
  178000   0.13346928  -0.30733592   -6.6309921    255.49183 
  179000     0.131164   -0.2551278   -6.6309854    255.49183 
  180000   0.12461371  -0.23447185   -6.6309867    255.49183 
  181000   0.12875162  -0.25382038   -6.6309982    255.49183 
  182000   0.12265261  -0.22900284   -6.6309859    255.49183 
  183000    0.1303854  -0.25950703   -6.6309951    255.49183 
  184000   0.13165349  -0.27346783   -6.6309955    255.49183 
  185000   0.12411411  -0.23230651   -6.6309908    255.49183 
  186000   0.12789228   -0.2664847   -6.6309952    255.49183 
  187000   0.12412849   -0.2253737   -6.6309999    255.49183 
  188000   0.12834271  -0.26029643   -6.6309918    255.49183 
  189000   0.12199856   -0.1951016   -6.6309933    255.49183 
  190000   0.11603044  -0.14073132   -6.6309874    255.49183 
  191000   0.14074648  -0.32208513   -6.6309963    255.49183 
  192000   0.12282425  -0.21122141   -6.6309829    255.49183 
  193000   0.12196848  -0.20210097   -6.6309754    255.49183 
  194000   0.11824144  -0.19837156   -6.6309725    255.49183 
  195000   0.11644761  -0.19816281   -6.6309667    255.49183 
  196000   0.12587196  -0.23200428   -6.6309619    255.49183 
  197000   0.12188031  -0.20170179   -6.6309601    255.49183 
  198000   0.12985055   -0.2578687   -6.6309583    255.49183 
  199000   0.12698244  -0.24741046    -6.630958    255.49183 
  200000   0.13011656  -0.29241677    -6.630956    255.49183 
  201000   0.12169097  -0.24757043   -6.6309397    255.49183 
  202000   0.13401241  -0.29484533   -6.6309384    255.49183 
  203000   0.12967534  -0.24812306    -6.630941    255.49183 
  204000   0.12542006  -0.24301823   -6.6309409    255.49183 
  205000    0.1324543  -0.32277214   -6.6309545    255.49183 
  206000   0.13244936  -0.28550811    -6.630953    255.49183 
  207000   0.12506373  -0.19711251   -6.6309537    255.49183 
  208000   0.12036442  -0.17847629   -6.6309469    255.49183 
  209000   0.12168469  -0.22910837   -6.6309395    255.49183 
  210000   0.11936826  -0.19973842   -6.6309443    255.49183 
  211000   0.12230639  -0.17116544   -6.6309413    255.49183 
  212000   0.12270994  -0.17717582   -6.6309386    255.49183 
  213000   0.12083891   -0.2236843   -6.6309493    255.49183 
  214000   0.12706677   -0.2362264   -6.6309515    255.49183 
  215000   0.12806358  -0.25145184   -6.6309648    255.49183 
  216000   0.12906024  -0.26243059   -6.6309848    255.49183 
  217000   0.12719371  -0.25950168   -6.6309897    255.49183 
  218000    0.1257533  -0.21424898   -6.6309935    255.49183 
  219000     0.130742  -0.26079487   -6.6309934    255.49183 
  220000   0.12863606  -0.26665551   -6.6309936    255.49183 
  221000   0.13319499  -0.29616272   -6.6309868    255.49183 
  222000    0.1251106  -0.24392736   -6.6309816    255.49183 
  223000   0.12348897    -0.197561    -6.630979    255.49183 
  224000   0.12079365  -0.21696303   -6.6309781    255.49183 
  225000   0.12881376  -0.26385668    -6.630981    255.49183 
  226000   0.13405953  -0.29895739   -6.6309836    255.49183 
  227000   0.12715456  -0.22934527   -6.6309842    255.49183 
  228000   0.12270008  -0.20984542   -6.6309784    255.49183 
  229000   0.13034085  -0.26943522   -6.6309878    255.49183 
  230000   0.13162776  -0.29847255    -6.630991    255.49183 
  231000   0.12165935  -0.18578458   -6.6309997    255.49183 
  232000   0.12916436  -0.25181932   -6.6309948    255.49183 
  233000   0.13071392  -0.29609757   -6.6309958    255.49183 
  234000   0.12426797  -0.21868098   -6.6310047    255.49183 
  235000   0.13134058  -0.30497922   -6.6310212    255.49183 
  236000   0.12579329  -0.21844256   -6.6310125    255.49183 
  237000   0.12179236  -0.22771953   -6.6310051    255.49183 
  238000    0.1298029  -0.26474301   -6.6310023    255.49183 
  239000   0.12244743  -0.20390218   -6.6309997    255.49183 
  240000   0.12929955  -0.21361912   -6.6309933    255.49183 
  241000   0.12558105  -0.21255083   -6.6309968    255.49183 
  242000   0.12993588  -0.25808189   -6.6309948    255.49183 
  243000   0.13172732   -0.2745588   -6.6309958    255.49183 
  244000   0.13715634  -0.33690113   -6.6309904    255.49183 
  245000   0.12371364  -0.23256443   -6.6309971    255.49183 
  246000   0.12864748   -0.2450121   -6.6309991    255.49183 
  247000   0.12582361  -0.23285431   -6.6309983    255.49183 
  248000   0.12461808  -0.24935445   -6.6310006    255.49183 
  249000   0.12610833  -0.26776765   -6.6310012    255.49183 
  250000   0.13211898  -0.28691577   -6.6310116    255.49183 
  251000   0.13500552  -0.32807746   -6.6310034    255.49183 
  252000   0.12811169  -0.28169407   -6.6309964    255.49183 
  253000   0.12699924  -0.26509328    -6.631009    255.49183 
  254000   0.13062182  -0.26247084   -6.6310141    255.49183 
  255000   0.13538969  -0.29248676   -6.6310155    255.49183 
  256000   0.12337881  -0.22216481   -6.6310094    255.49183 
  257000   0.12922312  -0.27178974   -6.6310103    255.49183 
  258000   0.13525105  -0.31100037   -6.6310161    255.49183 
  259000   0.12523664  -0.24449339   -6.6310037    255.49183 
  260000   0.12900446   -0.2509857   -6.6310073    255.49183 
  261000   0.12489526  -0.21970056   -6.6310044    255.49183 
  262000    0.1250088  -0.18993299   -6.6310069    255.49183 
  263000   0.13064787  -0.26628655   -6.6310179    255.49183 
  264000   0.13297933  -0.29233312   -6.6310313    255.49183 
  265000   0.11824375  -0.18241774   -6.6310209    255.49183 
  266000   0.12132064  -0.19304931   -6.6310177    255.49183 
  267000   0.12457359  -0.22138917   -6.6310123    255.49183 
  268000   0.12929867  -0.27669912   -6.6310163    255.49183 
  269000   0.12160778  -0.23114958   -6.6310155    255.49183 
  270000   0.12660269  -0.25507338   -6.6310083    255.49183 
  271000   0.12772032  -0.26054092     -6.63102    255.49183 
  272000   0.13296576  -0.30938636   -6.6310196    255.49183 
  273000   0.11961447  -0.17797586   -6.6310173    255.49183 
  274000    0.1317883  -0.28327615   -6.6310267    255.49183 
  275000   0.11967703  -0.20779897   -6.6310241    255.49183 
  276000   0.13323602  -0.31311697   -6.6310244    255.49183 
  277000   0.11263079  -0.13704895   -6.6310127    255.49183 
  278000   0.12468573  -0.23835404   -6.6310111    255.49183 
  279000   0.12336033  -0.19901232   -6.6310167    255.49183 
  280000   0.11654723  -0.19483339   -6.6310027    255.49183 
  281000    0.1229564  -0.23714956   -6.6309988    255.49183 
  282000   0.12322322   -0.2252205   -6.6309991    255.49183 
  283000   0.12944891   -0.2512114   -6.6309925    255.49183 
  284000   0.12832967  -0.27626777   -6.6310033    255.49183 
  285000   0.12811311  -0.26044303   -6.6310002    255.49183 
  286000   0.12380835  -0.21591134   -6.6309885    255.49183 
  287000   0.13290688  -0.31631967   -6.6309926    255.49183 
  288000   0.12563812  -0.27163626   -6.6309909    255.49183 
  289000   0.12550156   -0.2393031   -6.6309871    255.49183 
  290000   0.13935501  -0.32465968    -6.631005    255.49183 
  291000   0.11711685  -0.18960866   -6.6309887    255.49183 
  292000   0.12132372  -0.15850683   -6.6310004    255.49183 
  293000   0.11899585  -0.18702938   -6.6309938    255.49183 
  294000   0.12901681  -0.27172651   -6.6309994    255.49183 
  295000   0.12676768  -0.26454724   -6.6309947    255.49183 
  296000   0.13119476  -0.29080586   -6.6309926    255.49183 
  297000   0.13112563  -0.25668196   -6.6310007    255.49183 
  298000   0.12529113  -0.18965775   -6.6309948    255.49183 
  299000    0.1198214   -0.1814399   -6.6310008    255.49183 
  300000   0.11579708  -0.18014345   -6.6310013    255.49183 
  301000   0.13120491  -0.29228506   -6.6310085    255.49183 
  302000   0.12915712  -0.25881667   -6.6310124    255.49183 
  303000   0.12808512  -0.24472767    -6.631001    255.49183 
  304000   0.12343078  -0.22724258   -6.6309942    255.49183 
  305000   0.13328489  -0.29448923   -6.6310051    255.49183 
  306000   0.12803916  -0.25270583   -6.6310061    255.49183 
  307000   0.12769679  -0.25804334    -6.631003    255.49183 
  308000   0.12284668   -0.1914469   -6.6309925    255.49183 
  309000   0.12759104  -0.24132069   -6.6309959    255.49183 
  310000   0.13295345  -0.28702848   -6.6309859    255.49183 
  311000   0.12517116  -0.20882864   -6.6309699    255.49183 
  312000   0.12637297  -0.22045983   -6.6309665    255.49183 
  313000   0.12833547  -0.28267561   -6.6309655    255.49183 
  314000   0.13512509  -0.30973865   -6.6309702    255.49183 
  315000   0.13008184  -0.26762368   -6.6309696    255.49183 
  316000   0.12348297  -0.19784113   -6.6309612    255.49183 
  317000   0.12340835  -0.21694773   -6.6309568    255.49183 
  318000   0.13058065  -0.28766471   -6.6309616    255.49183 
  319000     0.122623  -0.19003773   -6.6309603    255.49183 
  320000   0.12389688  -0.22683591   -6.6309559    255.49183 
  321000   0.12816642  -0.24894255   -6.6309611    255.49183 
  322000   0.12336168  -0.22431838   -6.6309572    255.49183 
  323000   0.12256361  -0.22931887   -6.6309626    255.49183 
  324000   0.12894648  -0.24961938   -6.6309643    255.49183 
  325000   0.12564273   -0.2405579    -6.630959    255.49183 
  326000   0.13865947  -0.33583336   -6.6309628    255.49183 
  327000   0.13050873  -0.24026133   -6.6309636    255.49183 
  328000   0.12544364  -0.22467271   -6.6309681    255.49183 
  329000   0.13005745   -0.2773301   -6.6309657    255.49183 
  330000   0.12790179  -0.24404625   -6.6309712    255.49183 
  331000   0.12098826  -0.19006104   -6.6309691    255.49183 
  332000   0.12940395   -0.2870882   -6.6309732    255.49183 
  333000   0.12425681  -0.22957593   -6.6309703    255.49183 
  334000   0.12034074  -0.17424659   -6.6309732    255.49183 
  335000   0.12533282  -0.21717496    -6.630976    255.49183 
  336000   0.13143614  -0.28339014   -6.6309771    255.49183 
  337000   0.12905677  -0.23966847    -6.630982    255.49183 
  338000   0.12331862  -0.21456783   -6.6309784    255.49183 
  339000   0.12420589  -0.23266231   -6.6309766    255.49183 
  340000   0.13292669  -0.30013372   -6.6309846    255.49183 
  341000   0.12884391  -0.24322257   -6.6309956    255.49183 
  342000   0.12380315  -0.24689521    -6.630991    255.49183 
  343000    0.1345731  -0.28602432   -6.6309969    255.49183 
  344000   0.12630609  -0.22860191   -6.6309964    255.49183 
  345000   0.12491495  -0.21160014    -6.630992    255.49183 
  346000   0.12754136  -0.25307692   -6.6309829    255.49183 
  347000   0.12739675  -0.23538071   -6.6309909    255.49183 
  348000    0.1197004  -0.19027486   -6.6309936    255.49183 
  349000   0.12882803  -0.27897379   -6.6310019    255.49183 
  350000   0.12989518  -0.29490005   -6.6310033    255.49183 
  351000   0.12386526  -0.21052501   -6.6309999    255.49183 
  352000   0.12539592  -0.24643936   -6.6309968    255.49183 
  353000   0.12105482  -0.20082052       -6.631    255.49183 
  354000    0.1231685  -0.21649037   -6.6310033    255.49183 
  355000   0.13807152  -0.31225852   -6.6310041    255.49183 
  356000   0.12472225  -0.20028927   -6.6309975    255.49183 
  357000   0.12288069  -0.21394297   -6.6309946    255.49183 
  358000   0.13646852   -0.3031401   -6.6310037    255.49183 
  359000   0.12906365  -0.23550372   -6.6310008    255.49183 
  360000   0.13136237  -0.26026839   -6.6310127    255.49183 
  361000    0.1352161  -0.31276199   -6.6310109    255.49183 
  362000   0.13099822  -0.29490506   -6.6310107    255.49183 
  363000   0.12370595  -0.21990235   -6.6310075    255.49183 
  364000   0.12700306  -0.25746725   -6.6310114    255.49183 
  365000   0.12742765  -0.25106297   -6.6310171    255.49183 
  366000   0.12262379  -0.22218117    -6.631018    255.49183 
  367000   0.12525455  -0.26222974   -6.6310147    255.49183 
  368000   0.12639519  -0.23791723   -6.6310176    255.49183 
  369000   0.12394525  -0.24450418   -6.6310204    255.49183 
  370000    0.1307089  -0.29413415   -6.6310258    255.49183 
  371000   0.12970562  -0.24076364   -6.6310289    255.49183 
  372000   0.12194708   -0.2177488   -6.6310286    255.49183 
  373000   0.12827552  -0.28554052   -6.6310387    255.49183 
  374000    0.1271291  -0.22560216   -6.6310394    255.49183 
  375000   0.13535695  -0.30227701    -6.631041    255.49183 
  376000   0.12903604  -0.26106757   -6.6310389    255.49183 
  377000   0.12539067  -0.22626299   -6.6310356    255.49183 
  378000   0.13368636  -0.27104707   -6.6310555    255.49183 
  379000   0.12529289  -0.21967431   -6.6310437    255.49183 
  380000   0.12679627  -0.24750364    -6.631035    255.49183 
  381000   0.13421959  -0.32900421   -6.6310339    255.49183 
  382000    0.1220945  -0.18827212   -6.6310284    255.49183 
  383000   0.12484189   -0.2610405   -6.6310279    255.49183 
  384000   0.12938126  -0.24208329   -6.6310297    255.49183 
  385000   0.12439338  -0.23733014   -6.6310319    255.49183 
  386000   0.13944737  -0.34683619   -6.6310368    255.49183 
  387000   0.13258077  -0.29696159   -6.6310302    255.49183 
  388000   0.12670119  -0.25115512   -6.6310175    255.49183 
  389000   0.12992097  -0.28181299   -6.6310122    255.49183 
  390000    0.1322329  -0.31357099   -6.6310079    255.49183 
  391000   0.13122528  -0.26712256   -6.6310093    255.49183 
  392000   0.13417327   -0.3010245    -6.631017    255.49183 
  393000   0.12542233  -0.20775394   -6.6310143    255.49183 
  394000   0.13243132  -0.30646228   -6.6310211    255.49183 
  395000   0.11964852  -0.18942555   -6.6310114    255.49183 
  396000   0.12476901  -0.22859894    -6.631016    255.49183 
  397000   0.13271028  -0.25223272    -6.631022    255.49183 
  398000   0.13329048  -0.26983438   -6.6310285    255.49183 
  399000   0.12357297  -0.22801468   -6.6310186    255.49183 
  400000   0.12366257  -0.21617595   -6.6310267    255.49183 
  401000   0.12793242  -0.27513971    -6.631027    255.49183 
  402000   0.12150601  -0.21398372   -6.6310216    255.49183 
  403000    0.1251088  -0.23946308   -6.6310217    255.49183 
  404000   0.11867324  -0.16151446   -6.6310282    255.49183 
  405000   0.12623254  -0.24871653   -6.6310321    255.49183 
  406000   0.13370012  -0.28467122   -6.6310392    255.49183 
  407000   0.12857525  -0.20513147    -6.631033    255.49183 
  408000   0.12800105  -0.23807194   -6.6310366    255.49183 
  409000   0.12917041  -0.26695194   -6.6310425    255.49183 
  410000    0.1259811  -0.23646446    -6.631035    255.49183 
  411000   0.12945914  -0.28626418   -6.6310377    255.49183 
  412000   0.12859554  -0.24488806   -6.6310432    255.49183 
  413000   0.12813728  -0.28707984   -6.6310479    255.49183 
  414000   0.12715334  -0.26380831   -6.6310498    255.49183 
  415000   0.12812928  -0.28724019   -6.6310513    255.49183 
  416000   0.11870303  -0.18298428    -6.631041    255.49183 
  417000    0.1175352  -0.15014935   -6.6310424    255.49183 
  418000   0.12379654   -0.2206915   -6.6310381    255.49183 
  419000   0.12351712  -0.21264143   -6.6310355    255.49183 
  420000   0.12363187   -0.2569987   -6.6310419    255.49183 
  421000   0.12197503  -0.18793818   -6.6310333    255.49183 
  422000   0.12682848  -0.25316308   -6.6310315    255.49183 
  423000   0.12541132   -0.2199456   -6.6310199    255.49183 
  424000   0.12741355  -0.28030727   -6.6310195    255.49183 
  425000   0.13613847  -0.31124149   -6.6310192    255.49183 
  426000   0.13560207  -0.28661817   -6.6310168    255.49183 
  427000   0.12404859  -0.18806258   -6.6310211    255.49183 
  428000   0.12791959  -0.24386629   -6.6310166    255.49183 
  429000    0.1296052  -0.26138421    -6.631012    255.49183 
  430000   0.13197098  -0.30640837   -6.6310214    255.49183 
  431000    0.1282775  -0.26734488   -6.6310232    255.49183 
  432000   0.12660084  -0.21757172    -6.631009    255.49183 
  433000   0.12709915  -0.27844043   -6.6310145    255.49183 
  434000   0.11879352  -0.16651966   -6.6310133    255.49183 
  435000   0.12871492  -0.25922822   -6.6310158    255.49183 
  436000   0.12735675   -0.2567234   -6.6310091    255.49183 
  437000   0.12325403  -0.22344668   -6.6310083    255.49183 
  438000   0.13113076  -0.31417581   -6.6310138    255.49183 
  439000   0.12999882   -0.2826119   -6.6310185    255.49183 
  440000   0.12087608  -0.19224897   -6.6310201    255.49183 
  441000   0.13149891  -0.26072856   -6.6310272    255.49183 
  442000   0.12757357    -0.248668   -6.6310166    255.49183 
  443000   0.12688577   -0.2380607   -6.6310152    255.49183 
  444000   0.13346379  -0.30840313   -6.6310219    255.49183 
  445000   0.12801366  -0.18567934   -6.6310201    255.49183 
  446000   0.12887731  -0.24717294   -6.6310279    255.49183 
  447000   0.12461612  -0.27396661   -6.6310302    255.49183 
  448000   0.12246945  -0.21670229   -6.6310222    255.49183 
  449000   0.12723489  -0.25819872   -6.6310282    255.49183 
  450000   0.12130356  -0.19997516   -6.6310322    255.49183 
  451000   0.12441549  -0.20814301   -6.6310257    255.49183 
  452000   0.13388938  -0.27401498   -6.6310187    255.49183 
  453000   0.12283956  -0.20805797   -6.6310214    255.49183 
  454000    0.1295915  -0.27542299   -6.6310246    255.49183 
  455000   0.13184787  -0.28676353   -6.6310298    255.49183 
  456000    0.1344136  -0.27684087   -6.6310297    255.49183 
  457000   0.12015671  -0.19747112   -6.6310202    255.49183 
  458000   0.12748192  -0.23233274   -6.6310279    255.49183 
  459000   0.12385556  -0.24098421    -6.631018    255.49183 
  460000    0.1253597  -0.22066985   -6.6310177    255.49183 
  461000   0.13307065   -0.2976997   -6.6310309    255.49183 
  462000   0.12516968   -0.2186682   -6.6310256    255.49183 
  463000   0.11538622  -0.18153934   -6.6310152    255.49183 
  464000   0.13009606  -0.25187769   -6.6310246    255.49183 
  465000   0.12958084  -0.26173206   -6.6310114    255.49183 
  466000   0.13607643  -0.29221416   -6.6310207    255.49183 
  467000   0.12192975  -0.21583189   -6.6310134    255.49183 
  468000    0.1304152  -0.25917995   -6.6310123    255.49183 
  469000   0.12521683  -0.23038861   -6.6310217    255.49183 
  470000    0.1340128  -0.26846341   -6.6310263    255.49183 
  471000   0.12865279  -0.25793784   -6.6310259    255.49183 
  472000   0.12424462  -0.23676383   -6.6310294    255.49183 
  473000   0.13254414  -0.29615996   -6.6310389    255.49183 
  474000    0.1359218  -0.33500122   -6.6310359    255.49183 
  475000   0.12461863  -0.22181879   -6.6310316    255.49183 
  476000   0.12652516  -0.24326287   -6.6310327    255.49183 
  477000   0.12533146  -0.22614159   -6.6310345    255.49183 
  478000   0.12150634  -0.19106962   -6.6310301    255.49183 
  479000   0.12278635  -0.21697282   -6.6310322    255.49183 
  480000   0.12601456  -0.24035792   -6.6310354    255.49183 
  481000   0.12224518  -0.21022293   -6.6310308    255.49183 
  482000   0.13095003  -0.28754973   -6.6310335    255.49183 
  483000   0.12962947  -0.28571028   -6.6310358    255.49183 
  484000   0.12192135  -0.21588861   -6.6310271    255.49183 
  485000   0.12457938  -0.23337352   -6.6310226    255.49183 
  486000   0.12618993  -0.25569752   -6.6310206    255.49183 
  487000   0.12697108  -0.21808751   -6.6310322    255.49183 
  488000   0.13059719  -0.27409904   -6.6310353    255.49183 
  489000   0.12708534  -0.28200963   -6.6310295    255.49183 
  490000   0.12611582  -0.22493364   -6.6310361    255.49183 
  491000   0.12563754  -0.22819478   -6.6310267    255.49183 
  492000   0.12388022  -0.20571459   -6.6310397    255.49183 
  493000   0.12663373  -0.21654817   -6.6310385    255.49183 
  494000   0.12649806   -0.2579677   -6.6310379    255.49183 
  495000   0.12978156  -0.26177723   -6.6310327    255.49183 
  496000   0.12461088  -0.24354574   -6.6310334    255.49183 
  497000   0.12628696  -0.24780448   -6.6310335    255.49183 
  498000    0.1304969  -0.26921199   -6.6310318    255.49183 
  499000   0.13068043  -0.24009596   -6.6310394    255.49183 
  500000   0.12944489  -0.28105755   -6.6310367    255.49183 
  501000   0.13550373  -0.31082123   -6.6310345    255.49183 
  502000     0.118489   -0.1578099     -6.63102    255.49183 
  503000   0.12005606  -0.21644657   -6.6310256    255.49183 
  504000   0.12550572  -0.24741065   -6.6310224    255.49183 
  505000   0.12292179  -0.22277203   -6.6310278    255.49183 
  506000   0.12277276  -0.16501155   -6.6310222    255.49183 
  507000   0.12296657  -0.21294822   -6.6310224    255.49183 
  508000   0.13414277  -0.30622238   -6.6310249    255.49183 
  509000   0.12794441  -0.21318306    -6.631021    255.49183 
  510000   0.12386146  -0.24570725   -6.6310271    255.49183 
  511000   0.12155182  -0.20524388   -6.6310208    255.49183 
  512000   0.12313352  -0.21726659   -6.6310218    255.49183 
  513000    0.1308914  -0.26472383   -6.6310236    255.49183 
  514000   0.13776789  -0.34873322     -6.63102    255.49183 
  515000   0.12109993  -0.22638776   -6.6310065    255.49183 
  516000   0.13083834  -0.26169278   -6.6310093    255.49183 
  517000   0.12454365  -0.24284846   -6.6310084    255.49183 
  518000   0.12751263  -0.25611549    -6.631011    255.49183 
  519000   0.13098647   -0.2614367   -6.6310254    255.49183 
  520000   0.12216313  -0.19552729   -6.6310203    255.49183 
  521000   0.13552282  -0.31605744   -6.6310307    255.49183 
  522000   0.12647959  -0.25483429   -6.6310202    255.49183 
  523000   0.13696805  -0.31548033   -6.6310285    255.49183 
  524000   0.13842855  -0.31066593   -6.6310401    255.49183 
  525000   0.12665838  -0.24069785   -6.6310357    255.49183 
  526000   0.12757428  -0.24874444   -6.6310405    255.49183 
  527000   0.12170673  -0.18136981    -6.631047    255.49183 
  528000   0.12864622  -0.25296012   -6.6310492    255.49183 
  529000   0.12375839  -0.24924328   -6.6310438    255.49183 
  530000     0.130614  -0.26504904   -6.6310465    255.49183 
  531000   0.12527407  -0.22405457   -6.6310373    255.49183 
  532000   0.12612135  -0.21542441   -6.6310482    255.49183 
  533000   0.13276747  -0.26864959   -6.6310434    255.49183 
  534000    0.1335077  -0.27343061   -6.6310487    255.49183 
  535000   0.12683204  -0.25966433   -6.6310509    255.49183 
  536000   0.12451681  -0.22529224   -6.6310498    255.49183 
  537000   0.12885247  -0.28447533   -6.6310572    255.49183 
  538000   0.12585562  -0.22236463   -6.6310572    255.49183 
  539000   0.12246334      -0.2001    -6.631067    255.49183 
  540000   0.13045923    -0.256173    -6.631062    255.49183 
  541000   0.12583242  -0.21261741   -6.6310611    255.49183 
  542000   0.12197869  -0.20832118   -6.6310673    255.49183 
  543000   0.12685738  -0.24685844   -6.6310696    255.49183 
  544000   0.12083687  -0.19360216   -6.6310639    255.49183 
  545000   0.12946841  -0.27722889   -6.6310692    255.49183 
  546000    0.1276681  -0.23820623   -6.6310665    255.49183 
  547000   0.12729746  -0.26894153   -6.6310714    255.49183 
  548000   0.12209019  -0.21220693   -6.6310714    255.49183 
  549000   0.11811028  -0.15218725    -6.631071    255.49183 
  550000   0.13476266  -0.29144568   -6.6310736    255.49183 
  551000   0.12571306  -0.23744632   -6.6310761    255.49183 
  552000   0.12367214  -0.18387032   -6.6310854    255.49183 
  553000   0.12510081  -0.22934644   -6.6310879    255.49183 
  554000   0.12189415  -0.21083432   -6.6310842    255.49183 
  555000   0.12258193  -0.19968936   -6.6310771    255.49183 
  556000   0.12428984  -0.26350188    -6.631073    255.49183 
  557000   0.13220896  -0.28960928   -6.6310754    255.49183 
  558000   0.12606715  -0.21050845   -6.6310681    255.49183 
  559000   0.12644319  -0.22073307   -6.6310525    255.49183 
  560000   0.12689771  -0.25412552   -6.6310545    255.49183 
  561000   0.11888987  -0.20589894   -6.6310524    255.49183 
  562000   0.13651218  -0.36011295   -6.6310467    255.49183 
  563000   0.12652152  -0.25541482    -6.631045    255.49183 
  564000    0.1211986  -0.20729416   -6.6310365    255.49183 
  565000   0.13153229   -0.2643315   -6.6310426    255.49183 
  566000   0.13233421  -0.28477951   -6.6310478    255.49183 
  567000   0.12123728  -0.20576201    -6.631047    255.49183 
  568000   0.12422458   -0.2226977    -6.631037    255.49183 
  569000    0.1325655    -0.282425   -6.6310457    255.49183 
  570000   0.13135362  -0.25494014   -6.6310467    255.49183 
  571000   0.14083974  -0.34264787   -6.6310513    255.49183 
  572000   0.12559386  -0.24477337   -6.6310391    255.49183 
  573000   0.12834932  -0.24787142   -6.6310361    255.49183 
  574000   0.12814108  -0.25282795   -6.6310312    255.49183 
  575000   0.12709696  -0.21958217   -6.6310319    255.49183 
  576000   0.13351076  -0.28906934   -6.6310334    255.49183 
  577000   0.12852295  -0.25993104   -6.6310301    255.49183 
  578000   0.12355546  -0.18051213   -6.6310275    255.49183 
  579000   0.13091471  -0.28914715   -6.6310299    255.49183 
  580000   0.12650135  -0.22002995   -6.6310223    255.49183 
  581000    0.1303568   -0.2961965   -6.6310376    255.49183 
  582000   0.13075669  -0.26566533   -6.6310287    255.49183 
  583000   0.12841225  -0.24967837   -6.6310252    255.49183 
  584000   0.12639887  -0.20591034   -6.6310283    255.49183 
  585000   0.11908024  -0.19011028   -6.6310297    255.49183 
  586000   0.13205491  -0.24160442   -6.6310456    255.49183 
  587000   0.12364201   -0.2148408   -6.6310467    255.49183 
  588000   0.12929995  -0.27601802    -6.631044    255.49183 
  589000   0.12111997  -0.20444447   -6.6310436    255.49183 
  590000   0.12806421  -0.26703473   -6.6310434    255.49183 
  591000   0.12912611  -0.27196954   -6.6310411    255.49183 
  592000   0.12941014  -0.23795613   -6.6310231    255.49183 
  593000   0.13147365  -0.28362669     -6.63102    255.49183 
  594000   0.12482649  -0.24750511   -6.6310101    255.49183 
  595000   0.12808318   -0.2490976   -6.6310083    255.49183 
  596000   0.12631422  -0.25248166   -6.6310139    255.49183 
  597000   0.12434403  -0.23437503   -6.6310059    255.49183 
  598000   0.12640275  -0.22655467   -6.6310122    255.49183 
  599000    0.1153674  -0.16344489   -6.6309932    255.49183 
  600000   0.12337026  -0.25142772   -6.6310018    255.49183 
Loop time of 136.943 on 1 procs for 500000 steps with 256 atoms

Pair  time (%) = 121.696 (88.8659)
Neigh time (%) = 4.46367 (3.25951)
Comm  time (%) = 6.21939 (4.5416)
Outpt time (%) = 0.0192025 (0.0140222)
Other time (%) = 4.54512 (3.31899)

Nlocal:    256 ave 256 max 256 min
Histogram: 1 0 0 0 0 0 0 0 0 0
Nghost:    1443 ave 1443 max 1443 min
Histogram: 1 0 0 0 0 0 0 0 0 0
Neighs:    11250 ave 11250 max 11250 min
Histogram: 1 0 0 0 0 0 0 0 0 0

Total # of neighbors = 11250
Ave neighs/atom = 43.9453
Neighbor list builds = 7121
Dangerous builds = 0
#	run             10000
	unfix 		1


