ITEM: TIMESTEP
0
ITEM: NUMBER OF ATOMS
256
ITEM: BOX BOUNDS
0 6.3454
0 6.3454
0 6.3454
ITEM: ATOMS x y z 
3.1558 2.1163 5.9646 
5.2926 3.7143 3.8746 
3.8126 1.001 0.47284 
5.7694 0.78996 5.0516 
4.5389 1.0136 1.3283 
4.8071 3.2811 3.0286 
4.3097 3.7945 2.2221 
4.5966 5.8604 6.1257 
0.83965 2.1413 1.812 
1.4533 3.5868 5.2778 
5.4995 2.6676 1.1671 
3.1551 0.20145 2.4573 
6.2027 3.7804 1.9013 
3.4226 5.9992 3.4224 
6.0296 5.3344 0.68601 
3.4196 2.7225 5.0293 
5.4272 6.1553 2.4792 
2.5507 0.6597 1.5059 
4.9789 3.2109 5.7762 
2.201 2.6376 6.0369 
1.2067 1.0398 5.8892 
1.6719 4.7565 3.3998 
5.54 1.1912 6.0039 
3.7865 0.5333 5.1543 
4.3722 2.6969 2.2102 
4.7402 1.7427 4.0655 
4.6538 4.7505 6.1439 
6.2603 0.066503 0.57941 
3.8438 3.2509 0.46047 
1.572 2.0053 2.5677 
1.073 1.0916 2.2969 
2.5691 3.7722 4.2238 
3.608 3.8023 1.3975 
5.8234 0.58382 3.2093 
5.0563 4.1742 5.2188 
1.1974 5.2898 6.1091 
1.9466 2.1392 0.61195 
0.61112 0.11016 1.4619 
3.8404 2.7399 3.1818 
2.3295 4.2605 5.1631 
4.3602 4.1664 4.1441 
6.2556 2.6856 1.9507 
1.5198 5.8721 3.3413 
3.5626 3.3433 4.1231 
5.9574 6.0252 5.1695 
1.8982 1.9357 4.2771 
2.8622 0.46175 0.52841 
2.4829 2.6553 2.4401 
2.6911 3.2256 1.5063 
4.8903 5.3255 3.4491 
3.8169 3.8431 3.2113 
2.8805 4.8857 0.56734 
0.35841 1.2112 3.0733 
0.89638 0.58706 0.48692 
1.942 4.2779 0.65684 
4.3255 0.11558 0.69847 
2.0928 1.4312 3.3218 
5.7733 3.8782 2.8972 
6.1231 0.2335 4.1953 
3.9973 4.6795 5.2233 
3.345 5.8528 0.81844 
1.3237 4.1501 2.5419 
5.8322 1.3047 4.0275 
3.3284 4.3261 2.3617 
5.2316 4.3019 2.0623 
0.48089 2.2952 2.7964 
5.7163 3.1762 0.19406 
3.8026 4.9433 3.3174 
3.6317 2.6962 1.3841 
4.7943 4.3466 3.0968 
5.6953 2.0736 0.27116 
0.17783 1.6215 4.8332 
5.49 1.5588 1.2277 
2.1867 3.721 6.091 
5.3068 5.8666 0.66022 
4.393 0.46324 2.2758 
1.9783 3.2044 0.69209 
2.5492 5.4076 3.3817 
5.297 3.2305 2.0742 
1.8629 1.2168 0.56995 
0.81275 3.232 1.7616 
2.7873 4.347 3.3298 
0.45755 1.2988 3.3236 
1.3427 0.65775 3.2749 
2.65 1.0643 1.4473 
1.9406 5.6498 5.3412 
5.6062 5.3217 6.1146 
0.2807 4.5628 2.6151 
3.7165 2.1925 4.1194 
0.15605 0.564 5.9859 
3.063 0.39202 4.237 
0.10612 0.43276 2.3556 
3.6024 0.86988 6.1658 
4.8122 2.2172 3.0895 
6.0361 4.8834 5.2009 
5.5117 2.4797 3.8912 
4.7707 2.6774 0.37182 
0.62901 5.2443 3.4412 
4.0712 3.8249 5.8903 
4.2841 4.8851 2.2827 
1.0106 3.7217 0.78127 
2.1854 5.8794 2.4461 
1.2658 2.1331 5.6691 
5.6549 4.227 6.1945 
2.1752 1.5511 5.9867 
6.1982 3.3125 3.7196 
1.8332 3.6649 3.4112 
5.8857 5.8039 3.4159 
3.5724 1.6246 5.0825 
5.8292 1.5517 2.0743 
0.52849 0.45904 5.018 
6.0074 5.926 1.568 
4.5251 4.3725 1.288 
4.2874 3.4172 4.9356 
0.18059 5.6829 2.5098 
5.2821 3.0773 4.7664 
0.090054 2.0883 1.0553 
2.6366 5.8077 6.1244 
4.5542 3.2531 1.2836 
0.96138 1.6929 0.38287 
0.41595 3.4082 2.74 
3.0343 0.9834 3.2639 
1.7215 3.0666 4.3434 
3.1168 4.3321 5.9893 
3.8352 4.3691 0.46662 
4.8408 0.10118 5.1823 
0.56056 4.6333 4.419 
6.0927 4.6222 3.6139 
2.9547 5.1626 5.3166 
3.8406 2.1208 0.45486 
2.8609 3.2365 3.295 
4.0649 5.8654 1.6813 
1.5524 4.1703 4.3271 
1.5827 5.8623 1.5343 
5.8115 2.7846 2.9162 
1.7239 3.7453 1.6092 
6.0936 1.1743 0.49866 
3.1754 1.017 5.9372 
0.77421 4.0782 3.5134 
4.3505 5.3146 0.73609 
3.4634 2.1528 2.3162 
4.6481 1.2332 5.1291 
2.4402 3.1721 5.1356 
5.6173 5.0662 2.6719 
3.5785 4.9081 1.4297 
0.30812 3.6449 5.8193 
3.9148 5.7921 5.245 
0.89712 5.8657 0.61638 
5.2933 0.63806 0.60094 
4.0595 2.6938 5.8838 
3.6185 1.5882 1.3772 
3.2525 5.3901 2.4403 
1.1314 1.795 3.5568 
0.70408 3.4905 4.4738 
6.0585 4.8409 1.6624 
0.95444 2.9152 3.5754 
1.4552 3.0733 2.593 
1.7244 1.6085 1.5397 
0.57088 2.9568 5.4454 
2.1621 4.8284 6.0576 
1.9004 5.3334 0.63949 
2.8606 5.9173 5.2598 
5.4714 1.9076 4.8565 
3.1368 3.2329 5.9726 
1.0302 2.6445 0.87324 
1.3601 4.7357 5.2121 
0.084749 3.1921 0.98156 
0.24094 1.6362 5.8941 
3.2201 5.6409 4.3927 
4.7803 3.8049 0.34604 
3.9181 1.0733 4.1923 
1.1842 4.8932 5.9763 
0.76633 5.6851 5.1327 
4.9943 0.67538 4.2524 
4.5404 0.65153 6.0803 
1.2242 5.2394 2.4867 
2.2041 0.4541 5.9908 
4.5345 2.9062 3.9925 
4.4365 1.5828 2.2542 
2.5271 0.98677 5.0736 
6.2649 2.7313 4.6426 
1.646 0.31256 5.0736 
5.7718 1.7147 3.0325 
5.3423 2.1353 2.1271 
5.0543 0.099209 1.5235 
3.3649 4.5531 4.2613 
0.60199 0.97921 4.0674 
5.529 0.13325 6.0581 
2.5511 1.5866 2.3776 
1.9668 0.78934 4.1615 
4.2625 5.2501 4.3247 
5.06 5.3454 1.6662 
2.9044 3.7821 0.56829 
5.968 3.5104 5.4768 
2.1029 0.62862 2.4162 
5.4821 3.769 1.127 
4.9304 2.0656 5.8186 
3.5758 0.45541 1.4152 
2.3563 4.9302 4.3341 
3.6495 5.2739 6.195 
4.9153 0.64824 3.4019 
0.21419 5.8292 6.0624 
2.9494 2.1095 3.2805 
1.2287 4.2061 6.164 
4.9547 5.3182 5.2243 
4.4451 2.3356 4.918 
1.5793 0.57011 1.4672 
2.3909 0.1555 3.3527 
6.0178 0.66609 1.4238 
3.3941 3.2431 2.3327 
1.2599 3.0975 6.2509 
0.94085 2.3583 4.5714 
5.3504 4.7795 0.73347 
3.3113 3.8324 5.0616 
2.8772 1.5737 0.51965 
2.7232 2.6481 4.1998 
2.8825 1.5045 4.1974 
2.6925 2.145 1.4605 
1.7696 2.6721 1.6373 
5.2937 4.7791 4.3202 
4.5641 2.13 1.3038 
5.3746 0.96807 2.2301 
2.646 4.2985 1.5102 
6.0546 3.9925 4.5482 
4.7525 1.5435 0.39083 
0.63422 5.3762 1.5728 
1.0764 2.3977 4.2047 
0.31098 2.5654 0.088278 
2.5948 5.3497 1.5355 
1.7291 4.2599 0.78907 
4.1379 4.7458 4.2435 
5.9162 2.4699 5.642 
2.2815 4.803 2.4641 
0.72482 4.3084 1.6489 
2.5153 2.0824 5.1135 
1.137 3.6587 2.4137 
0.49504 4.1038 5.3442 
1.6532 4.8063 1.5768 
2.189 6.0403 4.3208 
2.3845 3.7341 2.4566 
2.7358 5.5378 4.3148 
0.15973 2.115 3.7995 
1.2674 1.3238 4.8654 
5.2381 5.8987 4.3277 
1.973 2.563 3.4037 
3.9762 0.5267 3.2532 
1.362 5.3243 4.2885 
1.8892 1.0754 0.56088 
0.25526 4.7528 6.1648 
3.9119 1.6248 3.2157 
3.497 1.0778 2.309 
2.9108 2.6812 0.5429 
0.95115 4.7959 0.70138 
4.2471 5.8521 2.7449 
0.66424 1.1969 1.3205 
4.8758 1.1146 3.1928 
ITEM: TIMESTEP
533
ITEM: NUMBER OF ATOMS
256
ITEM: BOX BOUNDS
0 6.3454
0 6.3454
0 6.3454
ITEM: ATOMS x y z 
3.13157 2.10042 5.89261 
5.0822 3.61843 4.2049 
3.80618 1.00189 0.446979 
5.85521 0.598051 5.15737 
4.51106 1.02056 1.3364 
4.77991 3.2305 3.11655 
4.32531 3.81199 2.26159 
4.60585 5.85769 6.15517 
0.800615 2.12821 1.90274 
1.45307 3.66866 5.28892 
5.46275 2.67864 1.16511 
3.21914 0.0763096 2.3943 
6.13594 3.77261 1.93685 
3.95915 5.87857 3.0124 
6.26082 5.33152 0.685728 
3.37641 2.67171 5.00035 
5.75899 0.101201 2.44364 
2.54343 0.0502563 1.47929 
4.99384 3.22758 5.77143 
2.18831 2.66484 5.94714 
1.18839 1.06353 5.95612 
1.32847 4.82064 3.49862 
5.56761 1.17205 6.03225 
3.90229 0.591129 5.22747 
4.31503 2.69756 2.21955 
5.14204 1.70864 4.13493 
4.60827 4.74476 6.14454 
6.25784 0.0847569 0.649099 
3.8285 3.24216 0.43249 
1.47115 2.19202 2.74211 
1.29159 1.21595 2.32308 
2.62294 3.79697 4.18606 
3.60591 3.80676 1.39191 
5.72553 0.651735 3.33985 
4.89243 4.16229 5.20341 
1.1593 6.34642 6.0527 
1.90573 2.14871 0.477532 
0.597857 0.0897905 1.55029 
3.76723 2.69086 3.17197 
2.3989 4.30595 5.13512 
4.15675 4.1831 4.26553 
6.20424 2.69466 1.92238 
1.27592 0.107776 2.44995 
3.57077 3.26465 4.10682 
5.83256 5.83391 5.21854 
1.79727 2.00404 4.10618 
2.84482 0.469305 0.512084 
2.44568 2.73312 2.45773 
2.67607 3.23394 1.48771 
4.82286 5.33105 3.40602 
3.82048 3.81128 3.21865 
2.86923 4.89676 0.568164 
1.11474 0.753437 3.28445 
0.885625 0.590257 0.5772 
2.15324 4.85533 6.05617 
4.32543 0.0748364 0.739066 
1.95555 1.38736 3.23302 
5.75254 3.79233 2.98432 
6.14026 6.31936 4.29694 
3.9168 4.72895 5.26196 
3.34332 5.86567 0.850535 
1.32917 4.30031 2.52003 
6.21244 1.03004 4.20367 
3.36662 4.32389 2.34705 
5.2397 4.37587 2.21511 
0.490135 1.60489 3.03484 
5.69275 3.18014 0.214914 
3.85217 4.88069 3.40632 
3.59885 2.69558 1.34796 
4.79172 4.2824 3.27005 
5.71109 2.08337 0.266922 
0.519795 1.05132 5.07035 
5.47424 1.56707 1.23222 
2.18977 3.74987 6.07477 
5.29484 5.87899 0.684164 
4.26193 0.488516 2.35615 
1.96789 3.19684 0.694286 
2.24261 5.41146 3.42355 
5.23561 3.25228 2.09767 
1.87408 1.07394 0.506427 
0.783308 3.20171 1.77843 
2.89226 4.4808 3.32257 
0.293198 0.109548 3.34882 
2.06209 0.236511 3.32584 
2.57837 1.09842 1.39195 
1.21646 5.71534 4.5894 
5.5676 5.30711 6.12556 
0.295371 4.74581 2.52239 
3.57317 2.10531 4.08563 
0.195718 0.593214 6.03824 
3.19623 0.531049 4.32354 
0.327197 0.692384 2.43158 
3.63157 0.0469892 6.20961 
4.73828 2.16816 3.11065 
5.84145 4.71741 5.23772 
5.4741 2.69849 3.83971 
4.7536 2.66699 0.349011 
0.366438 5.35647 3.43769 
4.07022 3.8129 5.86475 
4.29102 4.94534 2.38031 
0.99671 3.70933 0.773584 
2.2425 5.91611 2.45226 
1.20074 2.15631 5.8473 
5.58367 4.19095 6.153 
2.16636 1.55363 5.92495 
0.0560721 3.21985 3.63054 
1.98722 3.97214 3.32088 
5.75143 5.86885 3.38377 
3.37396 1.51427 4.98741 
6.19706 1.61507 2.09307 
0.467854 6.32967 5.18256 
5.98511 5.8818 1.56266 
4.53665 4.36963 1.34456 
4.29968 3.26994 4.93057 
0.323906 5.87713 2.46465 
5.1955 2.65114 4.8697 
0.0894301 2.10192 1.07386 
2.64444 5.83349 6.31364 
4.53165 3.2507 1.28197 
0.902574 1.66824 0.462632 
0.504762 2.64658 2.80307 
2.89228 0.905963 3.23168 
1.60126 3.01294 4.4536 
3.12559 4.34894 5.96885 
3.82932 4.37124 0.480794 
4.87787 0.0558807 5.21599 
0.708871 4.72571 4.3961 
5.76382 4.77664 3.39936 
2.92854 5.25118 5.35456 
3.81891 2.11586 0.412488 
2.87589 3.30817 3.26375 
4.0258 5.88696 1.75803 
1.61512 4.14349 4.32952 
1.56776 5.87862 1.56257 
5.77287 2.7241 2.86269 
1.69796 3.7531 1.60541 
6.26273 1.17179 0.558542 
3.12498 0.980813 5.91477 
0.354642 4.28049 3.51822 
4.32537 5.32122 0.747796 
3.34871 2.17327 2.27589 
4.87448 1.17072 5.1562 
2.44301 3.22802 5.08789 
5.73318 5.30909 2.45836 
3.58293 4.92339 1.4544 
0.255875 3.68247 6.29399 
3.91648 5.83296 5.2851 
0.876577 5.8614 0.668694 
5.29473 0.638387 0.649969 
4.06722 2.67409 5.83986 
3.56887 1.59633 1.3409 
3.20723 5.35601 2.4752 
0.86837 1.44121 4.07836 
0.65968 3.58045 4.48807 
6.01089 4.75808 1.54569 
1.09347 3.51078 3.53965 
1.48924 3.25301 2.56847 
1.61927 1.66194 1.3816 
0.554771 3.05579 5.44589 
1.94379 5.77995 5.43696 
1.86436 5.32915 0.649689 
2.93257 0.00989066 5.33046 
5.8673 1.72227 4.99562 
3.13951 3.23937 5.92406 
1.03311 2.63314 0.901968 
1.42874 4.78607 5.21392 
0.065107 3.22926 0.990345 
0.19904 1.67864 5.90606 
4.18736 0.0311774 4.32332 
4.75032 3.79815 0.358902 
4.16262 1.16286 4.24509 
1.15265 5.30104 6.11975 
0.439282 5.27274 5.26048 
5.16891 0.606492 4.2809 
4.59161 0.628326 6.11566 
1.27924 5.36768 2.53234 
2.15664 0.44376 5.97827 
4.45685 2.68183 4.03361 
4.29533 1.59596 2.2364 
2.4463 0.939717 5.04052 
6.21192 2.85698 4.62096 
1.4916 0.393776 5.10022 
5.70507 1.67849 3.07618 
5.24498 2.1415 2.12563 
5.03161 0.10962 1.58783 
3.20163 4.7029 4.38043 
0.831929 0.355834 4.24473 
5.56552 0.0722509 6.10126 
2.32716 1.69747 2.27334 
1.80051 0.874144 4.1652 
5.16074 5.83623 4.3198 
5.02525 5.31401 1.59732 
2.89841 3.78496 0.548974 
5.89658 3.61026 5.30898 
2.25078 0.647186 2.35155 
5.47457 3.80431 1.13074 
4.98582 2.07516 5.77987 
3.54832 0.484566 1.40556 
2.17911 5.14518 4.48001 
3.63656 5.29496 6.22023 
4.82015 0.0633165 3.41654 
0.177528 5.8545 6.12316 
2.79319 2.10411 3.24554 
1.20429 4.23637 6.16487 
4.88218 5.28209 5.2313 
4.29638 2.06908 4.92122 
1.57218 0.598453 1.47135 
3.0253 6.15398 3.44742 
5.99608 0.660889 1.53044 
3.39485 3.25253 2.30805 
1.25935 3.14806 6.24901 
0.604316 2.12475 4.88435 
5.29488 4.77454 0.680159 
3.36725 3.81707 5.0176 
2.85493 1.57774 0.462142 
2.66755 2.68241 4.16925 
2.71184 1.47855 4.12626 
2.63321 2.16963 1.36918 
1.73845 2.67337 1.68577 
5.13295 4.72221 4.294 
4.5251 2.12971 1.28724 
5.24137 1.03828 2.24288 
2.6405 4.31483 1.48331 
6.0532 4.10151 4.34648 
4.75874 1.5489 0.375963 
0.613778 5.33199 1.599 
0.898798 2.49604 3.79711 
0.328314 2.60068 0.107999 
2.57554 5.35998 1.54085 
1.92256 4.27582 0.653521 
4.19661 5.28694 4.35144 
5.94149 2.58322 5.66307 
2.26516 4.82989 2.47694 
0.68561 4.25806 1.64008 
2.42357 2.09377 5.02594 
0.482468 3.6792 2.68432 
0.476872 4.18602 5.3312 
1.61704 4.8159 1.5853 
2.22645 6.2469 4.40104 
2.434 3.78787 2.39075 
3.219 5.77762 4.43391 
6.29295 2.04243 3.91597 
1.50589 1.50376 5.01568 
6.10291 5.24109 4.32783 
1.93242 2.84404 3.43732 
3.85349 0.526312 3.3974 
1.25277 5.94341 3.50222 
1.85066 0.0214213 0.590288 
0.185855 4.75433 6.18521 
3.76008 1.58551 3.16984 
3.29139 1.11724 2.26357 
2.88951 2.68486 0.469654 
0.895773 4.77986 0.706923 
4.85467 5.89722 2.4774 
0.614365 1.17836 1.4355 
4.74837 1.11619 3.24209 
