ITEM: TIMESTEP
500000
ITEM: NUMBER OF ATOMS
256
ITEM: BOX BOUNDS
0 6.3454
0 6.3454
0 6.3454
ITEM: ATOMS f_myave[1] f_myave[2] f_myave[3] 
3.15583 2.11634 5.96456 
5.2926 3.71431 3.87459 
3.81263 1.00105 0.472843 
5.7694 0.789958 5.05161 
4.53886 1.01362 1.32832 
4.80709 3.28112 3.02863 
4.30973 3.79451 2.22209 
4.59659 5.8604 6.12571 
0.839654 2.14128 1.81198 
1.45331 3.58679 5.27783 
5.49954 2.66758 1.16714 
3.15514 0.201453 2.45735 
6.20275 3.78038 1.90126 
3.42263 5.99916 3.42241 
6.02964 5.33439 0.686014 
3.41957 2.72249 5.02927 
5.42718 6.15534 2.47925 
2.55065 0.659703 1.5059 
4.97893 3.21087 5.7762 
2.20099 2.63758 6.03685 
1.20665 1.03976 5.8892 
1.67193 4.75646 3.39979 
5.54001 1.1912 6.00393 
3.78651 0.533302 5.15429 
4.37223 2.69693 2.2102 
4.74025 1.74265 4.06555 
4.65378 4.75054 6.14391 
6.26029 0.0665032 0.579413 
3.84384 3.2509 0.460467 
1.57199 2.00531 2.56773 
1.07301 1.09157 2.29689 
2.56908 3.7722 4.22385 
3.60796 3.80226 1.39752 
5.82342 0.583817 3.20931 
5.05634 4.17418 5.2188 
1.1974 5.28978 6.10913 
1.94662 2.13922 0.611954 
0.611124 0.110163 1.46188 
3.84044 2.73985 3.18181 
2.32953 4.26052 5.16308 
4.36024 4.16642 4.14413 
6.25555 2.68561 1.95066 
1.51984 5.87208 3.3413 
3.56264 3.34333 4.12307 
5.95742 6.02519 5.16953 
1.89821 1.93565 4.27705 
2.86223 0.461752 0.528407 
2.48287 2.65526 2.44011 
2.69115 3.22563 1.50627 
4.89028 5.3255 3.44908 
3.8169 3.84309 3.2113 
2.88055 4.88572 0.56734 
0.358408 1.21125 3.07326 
0.896375 0.587058 0.486916 
1.94197 4.27793 0.656842 
4.32554 0.115581 0.698472 
2.09284 1.43117 3.32183 
5.77327 3.8782 2.89721 
6.12308 0.233496 4.19529 
3.99725 4.67952 5.22331 
3.34504 5.85282 0.818441 
1.32372 4.15005 2.54189 
5.83221 1.3047 4.0275 
3.32837 4.32614 2.36166 
5.23157 4.30186 2.06233 
0.480894 2.29525 2.79639 
5.71632 3.17621 0.194059 
3.80265 4.94333 3.31738 
3.63167 2.69621 1.38413 
4.79433 4.34661 3.09684 
5.69533 2.07363 0.271159 
0.17783 1.62154 4.83322 
5.49003 1.55881 1.22771 
2.18668 3.72104 6.09103 
5.30678 5.86659 0.660218 
4.39303 0.463242 2.2758 
1.97832 3.20444 0.69209 
2.54917 5.40758 3.38175 
5.29702 3.23048 2.07417 
1.86287 1.21681 0.569951 
0.812752 3.23197 1.76165 
2.78727 4.34697 3.32975 
0.457552 1.29877 3.32358 
1.34267 0.657752 3.27489 
2.65004 1.06434 1.44728 
1.94057 5.64979 5.34122 
5.6062 5.32175 6.11458 
0.280704 4.56277 2.61508 
3.71645 2.19252 4.11942 
0.156046 0.564003 5.98594 
3.06304 0.392024 4.23697 
0.106122 0.432756 2.35565 
3.6024 0.869884 6.16576 
4.81217 2.21721 3.08951 
6.03614 4.88335 5.2009 
5.5117 2.47969 3.89124 
4.77067 2.6774 0.371815 
0.629009 5.24434 3.44123 
4.07118 3.82493 5.89028 
4.28406 4.8851 2.28273 
1.01062 3.7217 0.781273 
2.18538 5.87942 2.4461 
1.26579 2.13307 5.66905 
5.65487 4.22704 6.19447 
2.17522 1.55107 5.98669 
6.19817 3.31246 3.71964 
1.83319 3.66486 3.41125 
5.88565 5.8039 3.41589 
3.57244 1.62456 5.08246 
5.82919 1.55167 2.07434 
0.528492 0.459039 5.01802 
6.00738 5.92604 1.56804 
4.52514 4.37251 1.28798 
4.2874 3.41716 4.93555 
0.180588 5.68288 2.50981 
5.28215 3.0773 4.76635 
0.0900545 2.08831 1.05531 
2.6366 5.8077 6.1244 
4.55416 3.2531 1.28357 
0.961383 1.69293 0.382873 
0.415947 3.40815 2.73999 
3.03429 0.983403 3.26392 
1.72152 3.06657 4.34339 
3.11682 4.3321 5.98925 
3.83517 4.36914 0.466618 
4.84085 0.101175 5.18228 
0.560557 4.63333 4.41899 
6.09274 4.62224 3.61393 
2.95468 5.16261 5.31659 
3.84064 2.1208 0.454862 
2.8609 3.23647 3.29505 
4.06493 5.86539 1.68129 
1.55243 4.17029 4.32707 
1.58266 5.86225 1.5343 
5.81151 2.78463 2.9162 
1.72392 3.74529 1.60922 
6.0936 1.17426 0.498663 
3.17537 1.01699 5.9372 
0.774207 4.07823 3.51339 
4.35051 5.31457 0.73609 
3.46337 2.15284 2.31619 
4.64814 1.2332 5.12911 
2.4402 3.17215 5.13563 
5.61726 5.06622 2.67186 
3.57852 4.90811 1.42969 
0.308123 3.64492 5.81934 
3.91477 5.79213 5.24501 
0.897119 5.86568 0.616376 
5.29326 0.638056 0.600945 
4.05955 2.6938 5.8838 
3.61847 1.58824 1.37716 
3.25246 5.39013 2.44026 
1.13139 1.79499 3.55682 
0.704081 3.49049 4.47376 
6.05851 4.8409 1.66239 
0.954445 2.91517 3.57538 
1.45517 3.0733 2.59296 
1.72439 1.60852 1.53968 
0.570884 2.9568 5.44544 
2.16208 4.82842 6.05761 
1.9004 5.33342 0.639489 
2.86062 5.91727 5.2598 
5.47138 1.90757 4.85654 
3.13684 3.23289 5.97256 
1.03019 2.64453 0.873242 
1.36013 4.7357 5.2121 
0.0847485 3.19207 0.981557 
0.240936 1.63619 5.89411 
3.22007 5.64093 4.39266 
4.78028 3.80488 0.34604 
3.91807 1.07328 4.19233 
1.18418 4.89316 5.97628 
0.766326 5.68513 5.13275 
4.99434 0.675379 4.25244 
4.54037 0.651535 6.08029 
1.22415 5.23939 2.48671 
2.20406 0.454101 5.99084 
4.5345 2.90616 3.99249 
4.43649 1.58278 2.25419 
2.52706 0.986775 5.07357 
6.26495 2.73131 4.64262 
1.64599 0.312564 5.07357 
5.77177 1.71472 3.03246 
5.34226 2.13525 2.12711 
5.05429 0.0992091 1.52352 
3.36495 4.5531 4.26129 
0.601991 0.979209 4.0674 
5.52897 0.133252 6.05808 
2.55112 1.58664 2.37762 
1.96679 0.789337 4.16149 
4.26247 5.25007 4.3247 
5.06003 5.34537 1.6662 
2.90442 3.78211 0.568293 
5.96797 3.51043 5.47685 
2.1029 0.628625 2.41625 
5.48206 3.76904 1.12696 
4.93044 2.06558 5.8186 
3.5758 0.45541 1.41524 
2.35635 4.93016 4.33414 
3.64948 5.2739 6.19504 
4.91525 0.648245 3.40185 
0.214192 5.82923 6.06244 
2.94939 2.10952 3.28054 
1.22865 4.20608 6.16405 
4.95471 5.31818 5.22427 
4.44515 2.33565 4.91803 
1.57925 0.570111 1.46721 
2.39086 0.155502 3.35271 
6.01777 0.666091 1.42376 
3.39405 3.24308 2.33274 
1.25995 3.09746 6.25095 
0.94085 2.35826 4.5714 
5.35043 4.77954 0.733467 
3.31134 3.83237 5.06163 
2.87716 1.57369 0.519653 
2.72318 2.64808 4.19985 
2.8825 1.50445 4.1974 
2.69245 2.14505 1.46045 
1.7696 2.67207 1.63727 
5.29365 4.77906 4.32016 
4.56412 2.12996 1.30378 
5.37456 0.968074 2.23012 
2.64603 4.29855 1.51019 
6.05462 3.99246 4.54816 
4.75246 1.54346 0.390834 
0.634222 5.37616 1.5728 
1.07639 2.39765 4.20473 
0.310979 2.56539 0.0882783 
2.59483 5.34966 1.53548 
1.72907 4.2599 0.789067 
4.13785 4.74584 4.24351 
5.91615 2.46988 5.642 
2.28149 4.803 2.46411 
0.724823 4.30836 1.64894 
2.51533 2.08243 5.1135 
1.13702 3.65875 2.41373 
0.49504 4.10378 5.34418 
1.65317 4.80629 1.57681 
2.189 6.04026 4.32083 
2.38452 3.73406 2.45663 
2.73579 5.53779 4.31482 
0.159733 2.11498 3.79953 
1.26744 1.32381 4.86542 
5.23806 5.89869 4.32774 
1.97299 2.56304 3.40369 
3.97621 0.526701 3.25317 
1.362 5.32435 4.28845 
1.88924 1.07537 0.560875 
0.255255 4.75276 6.16479 
3.91193 1.62479 3.21571 
3.49696 1.0778 2.30901 
2.9108 2.68121 0.542904 
0.951153 4.79591 0.701377 
4.24708 5.8521 2.74493 
0.664244 1.19686 1.32055 
4.87582 1.11457 3.19283 
