# Position data for LJ Ar in 864 atom cell		

2048 atoms
1 atom types	

0.0 12.4934 xlo xhi
0.0 12.4934 ylo yhi
0.0 12.4934 zlo zhi

#-15.16 0.0 0.0 xy xz yz

Masses

1 1.0

Atoms				

1 1 6.503 9.951 8.432
2 1 5.7838 7.9276 6.2084
3 1 2.9591 3.7367 9.934
4 1 7.5023 10.724 4.8382
5 1 8.6944 1.804 7.2912
6 1 11.993 0.95366 4.6477
7 1 11.672 2.6574 10.608
8 1 5.7865 12.553 11.932
9 1 10.247 3.8378 5.9274
10 1 6.2483 9.2447 7.6213
11 1 0.61528 7.6032 9.1984
12 1 1.0269 3.926 8.9045
13 1 5.5406 8.6543 6.9556
14 1 11.966 4.5482 10.934
15 1 7.3839 4.4161 1.4546
16 1 10.844 4.678 1.1581
17 1 2.3119 5.4778 0.58332
18 1 8.5079 10.7 10.004
19 1 6.4271 0.99276 9.9197
20 1 10.107 6.2759 7.337
21 1 5.6673 7.0758 12.483
22 1 10.036 11.924 4.3592
23 1 7.5877 11.243 3.8094
24 1 2.5737 8.9049 7.76
25 1 5.3709 6.7303 4.8183
26 1 3.0703 8.6574 11.059
27 1 2.9912 5.6589 9.519
28 1 3.507 6.8404 0.67406
29 1 6.967 4.6181 9.5794
30 1 11.005 10.632 8.7351
31 1 7.2314 10.117 11.565
32 1 9.1215 9.5206 11.359
33 1 5.1525 2.8638 5.3164
34 1 7.506 3.5958 0.36081
35 1 8.2675 11.309 6.9667
36 1 9.2671 9.6466 9.1967
37 1 2.0801 8.7139 8.7477
38 1 7.4451 1.132 8.5225
39 1 0.54138 1.175 0.59967
40 1 4.7138 5.7576 3.2419
41 1 0.042504 1.655 4.2011
42 1 7.3116 7.1918 0.94682
43 1 12.625 11.49 8.2852
44 1 2.3431 10.018 10.976
45 1 5.3027 10.186 3.187
46 1 3.6301 6.3915 6.6901
47 1 5.8592 3.7924 5.1155
48 1 4.5857 0.076593 5.717
49 1 7.0055 4.607 0.43231
50 1 12.309 2.5842 3.6751
51 1 5.0917 7.4675 7.7757
52 1 10.457 5.4533 4.6719
53 1 3.6381 6.1346 1.4858
54 1 10.393 10.888 6.9094
55 1 12.624 3.5455 9.2497
56 1 4.519 6.5793 10.259
57 1 0.0048054 0.021496 10.822
58 1 11.731 12.37 10.303
59 1 5.4694 0.76033 5.9717
60 1 8.9824 11.23 11.382
61 1 1.6918 2.4852 4.1612
62 1 2.2943 7.1232 3.7088
63 1 7.2485 1.6245 3.9857
64 1 2.9534 4.6281 0.77124
65 1 11.46 10.587 7.0043
66 1 10.362 6.2636 6.2229
67 1 11.62 9.0774 3.975
68 1 2.7765 6.0237 7.9882
69 1 1.4645 4.4541 5.1009
70 1 5.8396 2.9276 0.97897
71 1 1.5941 6.3402 3.9051
72 1 3.6863 2.077 11.07
73 1 8.1138 10.71 0.93792
74 1 3.7654 5.0061 3.9062
75 1 8.7913 0.31948 7.7296
76 1 9.4909 10.295 2.3352
77 1 2.089 2.6498 1.512
78 1 0.13272 3.8312 8.2203
79 1 11.098 11.57 7.3031
80 1 11.449 12.608 11.319
81 1 4.943 1.7788 7.3969
82 1 7.0567 1.2133 6.7474
83 1 0.44062 7.8108 11.037
84 1 5.6338 3.2911 3.2731
85 1 6.5603 8.5605 6.751
86 1 0.17487 10.975 11.858
87 1 8.6056 9.1093 12.344
88 1 6.2678 1.1568 1.416
89 1 1.6247 9.1002 5.9966
90 1 1.8293 10.865 10.522
91 1 3.467 11.803 10.28
92 1 4.0974 10.228 5.5998
93 1 6.6444 11.987 1.2988
94 1 12.368 1.1461 8.1446
95 1 5.4687 0.014688 5.138
96 1 4.9109 3.356 2.4573
97 1 5.6696 1.4203 8.1444
98 1 8.2448 3.3644 12.249
99 1 4.7836 12.021 2.7178
100 1 12.025 6.197 6.1703
101 1 8.5444 5.4152 1.2642
102 1 7.2923 2.9624 12.018
103 1 0.85804 11.029 7.8518
104 1 6.2049 11.441 6.2376
105 1 6.9446 2.4631 10.56
106 1 0.49425 3.4881 1.6108
107 1 4.1336 7.1289 1.5444
108 1 0.40738 5.6018 11.902
109 1 7.8817 7.5649 6.1509
110 1 11.921 8.2425 1.4752
111 1 2.2547 5.4155 8.7674
112 1 11.439 7.8909 5.5945
113 1 2.2271 1.3317 12.406
114 1 8.342 6.6881 11.185
115 1 6.1795 0.80767 0.33454
116 1 7.0554 4.0598 6.6222
117 1 0.71539 7.9192 0.27032
118 1 0.05281 7.3913 11.979
119 1 11.839 4.0763 6.9335
120 1 0.71674 10.867 0.76913
121 1 8.7567 1.0909 12.617
122 1 8.3809 0.63513 9.0943
123 1 3.513 4.8025 7.5271
124 1 2.4573 5.001 7.7725
125 1 12.258 0.80725 11.416
126 1 9.7564 5.2449 9.4919
127 1 2.5579 11.562 6.8671
128 1 4.459 5.5109 12.488
129 1 8.8217 5.8072 4.0343
130 1 5.2919 2.302 10.419
131 1 5.8682 4.2338 12.218
132 1 4.3054 5.308 8.7819
133 1 1.9461 1.9246 6.8227
134 1 2.7253 5.7396 10.638
135 1 8.943 0.064166 3.7002
136 1 2.8256 5.337 3.5262
137 1 3.385 7.1658 8.6993
138 1 3.1541 1.4003 7.4188
139 1 0.60039 7.3265 2.6083
140 1 3.6153 8.0678 1.5013
141 1 0.41763 7.748 4.0507
142 1 11.897 10.494 2.8064
143 1 3.7846 2.1508 7.8869
144 1 12.099 9.9484 10.934
145 1 11.397 9.5221 2.9711
146 1 3.0996 8.0185 4.4753
147 1 2.3508 1.8503 10.637
148 1 5.1537 8.9754 0.66153
149 1 10.734 11.84 5.2908
150 1 4.02 0.90194 8.651
151 1 8.2793 0.19434 4.538
152 1 0.80092 8.5661 6.3332
153 1 6.0357 0.53496 10.864
154 1 2.8124 6.0932 6.0489
155 1 5.188 11.806 5.8559
156 1 7.5697 11.83 2.7584
157 1 7.0284 10.519 0.99019
158 1 12.112 2.9621 8.4684
159 1 9.1959 2.9128 2.4855
160 1 0 8.341 8.654
161 1 1.8011 1.4204 8.5902
162 1 0.33582 9.5447 10.403
163 1 6.152 0.092987 1.9109
164 1 2.2005 10.982 11.506
165 1 0.28011 2.2296 0.97825
166 1 11.686 6.4393 10.747
167 1 9.5928 10.479 8.5752
168 1 11.121 5.938 5.3719
169 1 7.7721 3.8337 11.403
170 1 12.401 12.248 6.1569
171 1 6.7224 8.8879 9.6947
172 1 10.335 6.6098 3.2559
173 1 6.0644 7.783 11.019
174 1 9.9054 3.3172 11.375
175 1 1.3368 8.9053 7.9834
176 1 12.342 0.09397 4.0905
177 1 3.7377 5.296 2.1801
178 1 8.7799 6.1772 8.7585
179 1 1.4646 1.317 7.5715
180 1 11.494 2.5353 7.224
181 1 8.1213 5.0861 8.7503
182 1 7.4845 5.4244 0.97168
183 1 5.4484 1.2651 10.256
184 1 3.5128 7.037 4.4138
185 1 2.0473 0.39793 1.6788
186 1 2.1561 7.0675 10.922
187 1 7.4565 9.3133 10.477
188 1 3.2601 4.7461 4.8777
189 1 8.6959 0.37208 11.66
190 1 2.4975 7.4712 9.319
191 1 11.071 10.032 4.124
192 1 9.6971 0.60386 11.428
193 1 5.7252 4.3208 7.8306
194 1 1.2078 12.38 1.9875
195 1 2.6514 8.9913 4.4915
196 1 6.107 1.8676 0.49361
197 1 12.63 6.1555 10.165
198 1 6.9332 5.8807 11.532
199 1 8.1839 9.5214 6.4045
200 1 1.5902 0.98828 10.675
201 1 4.2974 3.7245 12.426
202 1 5.4272 1.1342 3.3943
203 1 3.8045 10.125 6.6385
204 1 2.7906 12.533 9.8679
205 1 0.36144 9.7221 0.82408
206 1 10.48 0.46612 12.343
207 1 3.5304 2.4296 6.052
208 1 12.353 3.4204 5.3345
209 1 6.7914 8.6672 12.487
210 1 4.5727 4.2286 0.91604
211 1 1.8339 9.9728 1.8473
212 1 1.0728 0.0039915 10.902
213 1 2.9377 3.6172 3.034
214 1 2.3378 11.832 3.6796
215 1 0.80852 5.5118 1.8638
216 1 5.4052 2.5026 8.4214
217 1 9.5042 9.496 3.0259
218 1 8.9726 3.9751 6.966
219 1 4.5698 2.5679 12.414
220 1 2.5836 11.744 10.871
221 1 5.41 11.294 4.3974
222 1 5.5502 11.759 1.9516
223 1 6.5218 1.9019 2.274
224 1 5.8404 5.2 10.386
225 1 4.1066 4.7587 11.802
226 1 10.986 1.0948 4.3911
227 1 3.3593 7.2895 12.312
228 1 7.5878 5.5143 9.6462
229 1 6.432 0.96205 8.8445
230 1 10.935 6.8647 2.4101
231 1 11.846 2.6541 9.4839
232 1 1.4299 2.8616 6.263
233 1 10.179 2.0051 2.7541
234 1 4.8401 8.096 8.607
235 1 3.5351 7.7092 3.5126
236 1 9.239 6.5212 3.2903
237 1 7.5522 8.6207 6.1789
238 1 6.6627 3.1405 8.5303
239 1 11.393 6.4439 3.3589
240 1 8.1493 1.6309 0.75919
241 1 6.9116 6.2263 1.5085
242 1 6.298 1.5098 5.9983
243 1 9.7261 8.2136 0.99802
244 1 11.947 11.506 12.295
245 1 8.9894 8.3133 3.9793
246 1 11.204 4.7803 9.3465
247 1 0.96853 8.9772 3.3208
248 1 7.2364 1.9708 11.497
249 1 9.5397 11.896 3.3775
250 1 1.0625 5.7114 6.7179
251 1 2.1097 7.5606 6.9776
252 1 6.5994 3.8544 3.137
253 1 2.9064 11.62 5.8186
254 1 11.408 7.0652 7.7541
255 1 10.436 0.31882 0.79956
256 1 1.8388 10.643 8.1058
257 1 12.256 6.3567 11.976
258 1 7.905 12.429 7.1204
259 1 0.3578 4.0632 10.819
260 1 7.956 8.5728 4.419
261 1 9.4287 4.8499 3.9084
262 1 3.8641 7.8567 0.46194
263 1 4.1954 3.5236 1.6617
264 1 9.571 2.1398 1.8489
265 1 9.9008 2.5464 6.3251
266 1 10.422 9.7436 2.5012
267 1 9.4394 8.7764 10.578
268 1 3.0759 11.618 1.6802
269 1 1.5494 4.7799 2.2767
270 1 12.356 9.3978 5.7184
271 1 8.0854 11.354 10.73
272 1 3.6556 12.348 11.783
273 1 9.8599 6.8459 12.279
274 1 0.94611 3.803 5.811
275 1 2.4675 7.0977 8.1023
276 1 0.66382 2.9595 8.6181
277 1 7.6472 7.1786 3.0366
278 1 1.3493 7.0317 0.033925
279 1 10.64 11.031 1.1598
280 1 1.8051 9.5737 12.521
281 1 1.3497 4.9597 9.1881
282 1 8.5673 3.7487 5.3777
283 1 10.619 5.499 7.8902
284 1 8.3349 11.762 9.7554
285 1 4.8836 9.8759 6.3283
286 1 2.3726 1.0707 2.6619
287 1 9.2896 6.3248 5.7289
288 1 3.083 9.3364 10.201
289 1 10.73 0.1095 10.462
290 1 9.6079 5.9738 10.478
291 1 0.79063 11.933 5.9151
292 1 1.9977 1.6926 3.566
293 1 10.944 4.7287 2.9621
294 1 8.1838 4.7519 2.1561
295 1 12.443 9.9248 2.0733
296 1 8.7975 5.0185 6.9138
297 1 9.4063 10.1 5.4328
298 1 12.216 11.468 9.9916
299 1 12.137 0.49986 1.9204
300 1 11.137 3.605 2.6922
301 1 6.6832 4.8821 7.5795
302 1 2.0505 11.909 1.5697
303 1 1.2862 11.278 5.1739
304 1 1.5941 7.3403 8.7993
305 1 12.324 7.2571 5.954
306 1 1.7969 2.5006 5.2428
307 1 0.73617 4.7739 4.2188
308 1 5.2914 8.3768 2.6504
309 1 11.627 12.304 2.4547
310 1 9.4479 0.27166 12.415
311 1 10.69 10.676 11.153
312 1 3.0848 1.4451 8.4922
313 1 9.4169 5.8555 0.033724
314 1 11.947 1.4533 9.0672
315 1 2.4359 2.5603 6.1077
316 1 1.9489 4.3636 8.5224
317 1 6.8763 10.25 7.4943
318 1 7.5283 3.8704 5.6616
319 1 7.0212 11.802 5.5772
320 1 3.0021 5.5787 6.9931
321 1 4.4263 1.3764 0.28882
322 1 2.7462 0.83093 5.7891
323 1 4.8835 5.5828 10.327
324 1 10.108 2.4632 12.004
325 1 8.4507 0.021203 0.085046
326 1 12.038 9.7348 0.33686
327 1 4.6426 7.7127 3.2847
328 1 12.307 5.6591 11.105
329 1 8.143 1.723 9.0965
330 1 11.399 5.329 6.197
331 1 0.53391 0.48136 5.9175
332 1 4.0435 11.398 12.313
333 1 1.9032 3.4793 12.056
334 1 4.7211 11.958 4.9009
335 1 11.159 9.5458 8.7804
336 1 3.0765 7.6005 11.336
337 1 1.6776 6.274 11.498
338 1 3.7971 4.5528 9.3695
339 1 4.836 3.8783 5.3058
340 1 2.6479 6.665 10.048
341 1 4.2221 6.6964 3.3814
342 1 8.2144 5.9186 7.0282
343 1 10.936 8.3439 3.5542
344 1 1.1368 6.5814 1.9014
345 1 6.5517 12.608 4.9511
346 1 1.8388 2.8875 7.2781
347 1 0.14302 0.77393 9.122
348 1 11.591 0 4.8822
349 1 0.63171 0.9549 11.091
350 1 3.737 9.8269 1.1048
351 1 3.4584 7.6099 9.7022
352 1 10.735 2.6402 11.134
353 1 7.8244 8.7489 0.36948
354 1 11.429 0.49009 0.49138
355 1 4.1494 11.124 11.292
356 1 10.288 7.8561 12.042
357 1 4.1839 8.8655 11.216
358 1 10.377 8.1411 5.2522
359 1 2.5432 11.551 0.72188
360 1 2.3583 1.9854 7.8104
361 1 4.4468 0.24778 4.4445
362 1 1.1745 1.9411 1.5324
363 1 1.2821 12.253 12.378
364 1 2.1746 11.597 12.361
365 1 6.7644 0.58602 5.8021
366 1 8.0223 10.266 3.5793
367 1 8.9642 2.2927 9.6303
368 1 5.5777 2.5363 7.0623
369 1 2.6225 8.0541 12.393
370 1 12.014 2.5416 0.39649
371 1 11.842 6.6962 5.1518
372 1 1.6705 10.076 6.3764
373 1 0.68043 9.7155 6.1853
374 1 7.6044 11.606 1.1235
375 1 6.921 3.3005 1.2046
376 1 3.5537 3.0494 0.080535
377 1 3.1003 11.757 9.0894
378 1 4.5825 0.40079 0.82351
379 1 4.5376 1.3858 10.817
380 1 2.8739 12.609 3.2127
381 1 11.251 5.4508 3.6978
382 1 2.1406 2.4804 8.7123
383 1 5.8054 11.91 3.0372
384 1 11.943 2.2425 1.4734
385 1 1.4102 0.6626 0.085604
386 1 3.8952 5.9324 5.752
387 1 2.0182 7.2739 1.2805
388 1 10.618 11.825 6.3388
389 1 5.8864 4.6444 0.60302
390 1 5.1085 5.8341 8.3207
391 1 4.3323 7.285 9.114
392 1 11.921 4.598 5.5836
393 1 1.7057 12.088 4.4953
394 1 0.71945 6.8212 3.5942
395 1 5.9308 11.742 9.3883
396 1 9.7939 8.6986 11.58
397 1 5.3941 1.0447 9.1659
398 1 4.8283 0.40554 10.441
399 1 3.4342 12.192 7.035
400 1 3.0495 7.1517 1.6785
401 1 9.1959 12.143 1.8049
402 1 0.16649 8.6268 0.94161
403 1 4.7707 10.562 7.2106
404 1 2.5424 0.91155 10.172
405 1 5.4094 3.7808 9.8069
406 1 1.7936 4.4299 6.1388
407 1 3.7846 8.486 10.255
408 1 4.282 3.9086 10.132
409 1 6.9782 12.403 6.5095
410 1 1.7012 11.048 4.226
411 1 6.9425 9.0917 1.7546
412 1 8.7789 7.6614 10.902
413 1 0.5937 12.554 6.8153
414 1 4.9116 9.4239 11.889
415 1 7.2412 6.935 11.275
416 1 11.231 11.353 2.7833
417 1 5.0622 2.0171 9.3824
418 1 0.95998 3.691 10.011
419 1 6.8739 0.37593 1.0535
420 1 8.5933 6.8857 2.5251
421 1 11.694 4.1636 0.78091
422 1 3.2366 4.6174 2.8514
423 1 10.519 9.303 3.5206
424 1 1.8919 2.3765 12.258
425 1 10.519 10.999 4.0312
426 1 6.9868 0.86554 11.378
427 1 1.3153 8.2084 1.3217
428 1 2.0716 3.0223 0.46357
429 1 8.176 1.808 10.972
430 1 3.6538 2.8663 9.6802
431 1 8.5889 11.464 3.5136
432 1 4.8368 10.434 4.1236
433 1 3.6309 8.7013 7.8908
434 1 2.1804 1.5057 1.7101
435 1 1.8626 2.0591 2.5597
436 1 7.9836 2.8106 5.6082
437 1 9.057 2.6751 5.3054
438 1 0.38144 6.5332 6.4925
439 1 10.558 4.4923 7.5303
440 1 2.3792 0.64739 9.0906
441 1 7.068 3.7341 2.1901
442 1 10.364 0.14659 5.7073
443 1 0.29285 12.441 8.6895
444 1 10.008 11.5 10.979
445 1 9.4853 4.3103 11.248
446 1 11.592 8.7547 0.55358
447 1 2.0638 3.503 3.6532
448 1 2.8911 1.9348 5.3111
449 1 12.25 11.687 4.3781
450 1 11.472 2.7499 5.4594
451 1 2.5761 10.124 12.003
452 1 2.9162 1.9524 4.1753
453 1 9.016 10.483 3.3002
454 1 5.1116 4.861 4.9875
455 1 6.8241 3.4112 11.103
456 1 1.4178 12.582 0.92237
457 1 7.729 10.39 6.8554
458 1 2.8971 5.34 1.5297
459 1 7.2664 6.2932 0.38201
460 1 6.2833 11.007 1.5523
461 1 0.25382 10.278 5.4081
462 1 1.9983 8.995 1.5039
463 1 7.0827 6.4971 9.6268
464 1 0.054681 9.7258 7.5668
465 1 9.0542 7.6704 7.1512
466 1 1.2412 4.6724 10.298
467 1 7.7097 12.385 9.1301
468 1 5.3205 3.6524 0.34906
469 1 7.6999 7.2967 9.1323
470 1 3.0016 10.915 0.032902
471 1 2.9188 7.7922 5.5747
472 1 11.022 2.8531 8.1292
473 1 2.7557 9.0192 2.343
474 1 10.007 2.8877 3.3295
475 1 3.5755 11.178 6.6369
476 1 10.537 7.0353 11.367
477 1 10.275 6.3439 1.7008
478 1 2.9775 7.8725 7.5099
479 1 1.4019 10.684 2.4891
480 1 0.75316 5.7031 3.5796
481 1 3.7241 7.1656 2.5525
482 1 5.3291 10.076 2.1229
483 1 1.7931 7.898 0.43935
484 1 2.6246 7.3081 2.6977
485 1 9.6546 10.15 6.4737
486 1 7.6277 2.1559 4.846
487 1 3.1895 0.077477 10.888
488 1 9.75 6.9753 2.4057
489 1 11.055 7.2156 10.351
490 1 12.041 9.3602 1.3004
491 1 1.0576 4.6853 3.2119
492 1 4.0806 6.4979 12.414
493 1 9.7654 8.5004 3.261
494 1 6.5645 4.2726 8.5895
495 1 11.907 7.0938 0.0645
496 1 7.959 0.73323 10.979
497 1 9.5956 3.8623 8.8548
498 1 11.662 9.5474 7.2185
499 1 0.9103 1.883 3.625
500 1 0.76928 10.679 10.163
501 1 3.8434 1.5283 4.7751
502 1 11.356 7.7337 0.72157
503 1 9.6699 11.983 5.359
504 1 1.0177 6.5092 4.7552
505 1 10.645 5.7355 9.0147
506 1 2.7179 1.9655 11.64
507 1 2.0385 12.139 9.202
508 1 7.9873 6.3459 1.2424
509 1 4.3639 6.0692 0.76361
510 1 3.5247 3.616 8.9822
511 1 1.9412 10.616 0.13897
512 1 7.5186 7.7796 5.089
513 1 10.475 0.87357 7.5792
514 1 7.7765 8.5125 11.942
515 1 4.6071 7.0746 0.51886
516 1 4.4752 1.5083 11.858
517 1 9.9392 1.1171 4.1823
518 1 0.021529 7.9311 6.775
519 1 0.68438 10.56 4.456
520 1 6.5955 11.697 2.3176
521 1 0.14542 8.9525 9.5233
522 1 4.5027 3.7823 6.3046
523 1 11.306 1.7522 3.0408
524 1 1.4775 7.0793 7.7375
525 1 3.4188 3.4723 6.2833
526 1 7.5377 2.095 0
527 1 8.7003 1.2406 6.4016
528 1 1.6004 4.8166 7.1301
529 1 4.7059 10.174 8.2009
530 1 6.428 10.742 9.2513
531 1 4.1047 7.3487 6.1211
532 1 8.2703 2.3305 11.91
533 1 8.3355 10.173 5.293
534 1 2.4659 7.0413 0.35807
535 1 9.9929 4.4736 10.264
536 1 12.228 4.7571 0.11419
537 1 11.744 8.7329 9.2003
538 1 6.6152 11.101 10.215
539 1 7.4355 7.802 0.063779
540 1 3.801 10.664 7.6301
541 1 11.323 10.045 1.954
542 1 12.463 7.5059 0.89509
543 1 9.5862 6.9321 6.6348
544 1 11.371 1.1787 1.409
545 1 9.9987 0.95258 10.453
546 1 4.1775 7.7811 11.164
547 1 8.8351 5.364 5.8798
548 1 5.2435 8.0045 0.18823
549 1 8.2998 3.4378 6.3822
550 1 12.011 6.6249 2.5152
551 1 1.3428 0.98458 3.1499
552 1 4.934 8.8572 1.7197
553 1 8.7128 12.415 5.4383
554 1 2.521 3.7253 1.1731
555 1 9.0104 6.6725 4.7434
556 1 10.735 8.3877 1.3548
557 1 10.009 3.6093 6.9673
558 1 5.2682 6.656 3.4643
559 1 10.043 9.4071 12.343
560 1 0.70544 1.4751 8.4754
561 1 7.5696 3.1646 2.9688
562 1 1.6279 11.895 11.434
563 1 0.24473 3.1734 0.56038
564 1 4.9825 8.8648 4.8019
565 1 6.1426 12.204 7.1437
566 1 4.14 5.3916 4.8591
567 1 11.003 1.9884 9.0935
568 1 5.3286 0.26446 2.6323
569 1 2.9721 4.1421 8.2297
570 1 11.784 12.142 7.9854
571 1 7.3095 11.941 10.09
572 1 3.3223 9.7032 11.171
573 1 2.1362 10.881 3.2557
574 1 8.3921 10.116 12.084
575 1 11.402 8.9837 2.0362
576 1 0.62045 0.45059 1.4736
577 1 11.621 1.7243 10.012
578 1 0.020624 6.7792 4.403
579 1 4.1632 4.8529 10.708
580 1 7.0428 0.35485 7.4225
581 1 5.9972 12.157 4.1766
582 1 6.2702 5.1565 6.5559
583 1 9.5228 0.61763 6.9516
584 1 2.2928 9.4226 9.5015
585 1 2.4771 12.502 7.4119
586 1 0.72714 3.4504 11.628
587 1 6.6483 10.82 5.4403
588 1 3.823 5.8499 7.6885
589 1 2.7326 3.7881 0.10309
590 1 5.5791 2.466 2.5787
591 1 7.6127 7.5994 4.0211
592 1 11.605 3.9481 4.7485
593 1 11.45 9.7564 6.173
594 1 3.5537 2.7398 2.8043
595 1 7.1135 4.6603 3.9241
596 1 9.4457 3.392 1.5185
597 1 8.8438 11.506 0.98583
598 1 5.3978 4.5231 5.9628
599 1 7.0847 11.935 7.7313
600 1 8.2569 4.4891 6.1483
601 1 9.0289 7.3592 5.6185
602 1 8.5189 8.0575 12.607
603 1 6.1104 7.2612 5.3758
604 1 4.3627 11.95 6.52
605 1 0.38807 7.8941 1.7117
606 1 5.9315 9.985 1.2125
607 1 8.8363 8.7815 2.6324
608 1 6.0625 10.949 3.6126
609 1 5.5999 7.5773 3.9076
610 1 0.57264 5.084 7.4371
611 1 4.5797 4.4546 2.022
612 1 10.446 8.0104 9.9691
613 1 9.0289 11.091 5.2354
614 1 6.0856 9.9974 5.7302
615 1 6.4529 5.5989 9.598
616 1 4.3053 11.379 4.102
617 1 11.364 6.1286 1.7383
618 1 10.174 12.147 0.097031
619 1 3.5332 10.979 4.828
620 1 11.787 5.3481 1.0281
621 1 1.4662 9.5945 8.8291
622 1 9.8697 4.5931 4.8927
623 1 12.326 10.453 1.1859
624 1 6.7749 3.8206 7.6372
625 1 6.9931 10.346 3.9287
626 1 5.4747 9.0568 5.9089
627 1 4.1637 9.5624 7.4765
628 1 6.4462 9.5329 10.675
629 1 5.4289 2.8976 4.2385
630 1 12.608 4.6562 11.752
631 1 10.689 1.9216 5.873
632 1 8.8445 8.8189 0.74897
633 1 3.7336 0.49216 5.1618
634 1 6.3048 2.2763 7.8162
635 1 3.5229 1.0824 10.579
636 1 2.948 4.9503 12.38
637 1 0.77411 5.899 10.943
638 1 8.2337 5.8937 2.2275
639 1 8.9585 4.1918 12.277
640 1 1.1461 8.9338 0.50706
641 1 1.2909 7.5694 11.717
642 1 12.407 2.5006 4.7729
643 1 3.0931 5.8007 5.0506
644 1 9.3971 0.60266 5.7834
645 1 5.9964 5.184 8.4524
646 1 1.7127 10.844 7.084
647 1 4.2306 6.2306 2.3598
648 1 7.2628 5.0055 6.1307
649 1 10.563 8.702 2.6005
650 1 0.94635 9.338 11.904
651 1 3.7712 5.9259 10.737
652 1 6.5498 5.0887 1.4111
653 1 2.2695 7.1111 11.963
654 1 6.3006 4.0756 1.468
655 1 5.9974 8.3435 5.2848
656 1 8.2656 11.856 7.9058
657 1 4.4853 2.3497 2.5303
658 1 8.9367 9.7028 10.276
659 1 4.1994 10.805 1.3525
660 1 2.3431 11.523 8.3875
661 1 10.911 11.799 8.6109
662 1 9.3066 3.3752 6.1179
663 1 1.7237 6.2869 8.3685
664 1 1.6908 12.612 8.2629
665 1 10.091 11.007 5.0255
666 1 4.2104 3.9577 7.3431
667 1 8.9862 9.1481 5.8123
668 1 10.212 9.7039 11.327
669 1 5.4184 7.2515 10.412
670 1 4.532 8.8954 6.6343
671 1 0.96318 8.8108 10.949
672 1 10.856 1.0286 9.6749
673 1 12.516 6.3816 9.0538
674 1 2.9529 11.616 2.7818
675 1 4.5697 7.2217 4.2332
676 1 2.935 8.6933 3.3743
677 1 11.102 12.11 0.80353
678 1 0.14433 12.321 2.1516
679 1 6.6214 7.1308 10.4
680 1 10.637 5.3615 10.065
681 1 10.081 6.043 11.62
682 1 5.768 2.8403 9.3665
683 1 11.697 2.0065 8.1619
684 1 5.5739 6.364 9.8536
685 1 4.8216 12.516 1.7522
686 1 0.071805 8.9672 3.8602
687 1 3.8039 9.3798 12.052
688 1 0.60244 2.7402 9.7405
689 1 3.9847 5.0798 1.1753
690 1 12.194 10.641 4.6347
691 1 2.5051 5.6454 11.726
692 1 5.1341 1.5183 2.4844
693 1 9.9287 8.0101 2.0454
694 1 2.4866 8.0882 1.8208
695 1 11.976 6.9517 9.7855
696 1 11.234 12.331 12.379
697 1 8.1172 8.342 3.3655
698 1 8.6984 10.583 6.2062
699 1 8.6062 12.24 2.7719
700 1 12.49 9.6031 4.6607
701 1 12.259 7.3715 8.7954
702 1 5.2207 0.77867 7.2375
703 1 2.4846 7.1062 4.7998
704 1 10.525 1.9445 3.8066
705 1 8.9369 6.8694 10.232
706 1 9.928 3.83 4.0947
707 1 12.168 7.6875 4.8722
708 1 2.4798 9.844 8.4015
709 1 11.969 4.4682 2.7441
710 1 6.1035 3.1116 10.337
711 1 8.7093 3.4013 9.6435
712 1 4.7997 4.7204 9.6718
713 1 1.6062 1.3155 9.6757
714 1 9.0877 11.318 9.1018
715 1 5.8199 3.7869 11.226
716 1 7.3501 12.042 4.5088
717 1 0.15928 10.406 8.4389
718 1 9.7216 12.498 10.619
719 1 6.3925 3.7219 0.38492
720 1 8.043 6.6269 4.3012
721 1 11.147 0.86386 5.4386
722 1 7.888 5.891 6.0042
723 1 7.6438 7.0259 1.9638
724 1 2.64 10.354 10.049
725 1 6.219 1.8495 3.3074
726 1 12.464 0.85831 12.481
727 1 6.114 8.0387 9.9679
728 1 5.134 0.69216 11.434
729 1 7.5764 4.2874 2.9638
730 1 7.744 4.7877 7.0626
731 1 7.5633 10.541 0.038371
732 1 9.0989 4.8671 0.50427
733 1 3.6528 11.569 0.78335
734 1 8.5235 4.515 7.8174
735 1 3.1933 6.6863 3.4032
736 1 10.024 0.21409 1.7675
737 1 7.1529 6.3966 3.6461
738 1 3.0048 6.3039 12.439
739 1 5.6042 0.13134 0.99463
740 1 10.618 0.054112 2.705
741 1 4.1294 11.832 9.3595
742 1 8.0784 10.896 2.7529
743 1 3.6103 2.5688 4.7686
744 1 6.5319 5.094 12.214
745 1 0.94656 1.9965 5.8745
746 1 5.9013 8.5671 4.2442
747 1 6.0234 0.92716 5.066
748 1 7.8042 2.8312 11.077
749 1 1.7199 9.118 4.9535
750 1 4.2422 9.6769 4.6849
751 1 5.3611 12.273 10.975
752 1 10.622 7.3488 1.5026
753 1 9.7303 1.0098 0.49693
754 1 7.7327 7.9733 10.922
755 1 9.1687 1.694 8.7869
756 1 2.5581 6.5821 7.0371
757 1 6.2832 5.6823 2.2719
758 1 12.516 2.3125 6.8923
759 1 8.5578 7.3171 3.5908
760 1 7.4636 6.0817 10.59
761 1 3.4116 0.64323 6.711
762 1 3.355 1.0125 9.5039
763 1 4.2537 1.4336 3.0859
764 1 1.9755 1.569 5.8245
765 1 3.0946 10.693 1.1227
766 1 11.641 11.495 6.3981
767 1 11.443 5.1207 7.2481
768 1 6.7702 11.847 3.505
769 1 9.2537 1.0556 9.6499
770 1 2.1129 8.2504 2.8301
771 1 11.208 5.0391 0.19723
772 1 3.5947 12.479 6.0052
773 1 0.7053 9.2571 5.27
774 1 0.51625 7.4273 5.1197
775 1 12.458 11.825 7.1895
776 1 5.0611 11.932 8.7456
777 1 1.5422 6.8712 2.9412
778 1 8.283 8.1231 7.8354
779 1 1.7586 6.1272 9.4044
780 1 10.473 10.757 10.128
781 1 8.2804 3.0942 4.5807
782 1 0.36418 3.1409 2.9943
783 1 0.28456 5.5783 6.0263
784 1 2.666 3.0895 7.9608
785 1 7.3167 9.4726 8.9601
786 1 8.7318 12.287 8.7401
787 1 1.968 10.807 1.2038
788 1 6.7412 7.2611 2.4398
789 1 4.0215 7.6984 8.0205
790 1 12.278 12.498 12.002
791 1 6.1988 0.55764 6.7445
792 1 3.2427 1.9612 10.07
793 1 1.7816 8.2045 9.6563
794 1 5.6163 2.6854 12.604
795 1 3.0571 8.9724 1.2857
796 1 2.5428 0.94989 11.278
797 1 12.277 4.7113 7.7622
798 1 6.7547 5.9681 6.0083
799 1 1.8854 9.204 11.452
800 1 9.3231 11.079 7.0317
801 1 8.4112 5.8368 5.0208
802 1 2.3584 3.5279 6.5727
803 1 3.8802 8.0453 7.0004
804 1 9.0108 12.086 7.179
805 1 12.543 5.7798 0.199
806 1 9.1523 6.257 1.8247
807 1 5.3002 6.3559 10.948
808 1 2.5933 12.542 6.3537
809 1 6.9587 11.653 8.9735
810 1 10.89 9.3877 1.1401
811 1 11.539 0.61387 7.6115
812 1 8.6319 9.3216 3.6603
813 1 2.822 2.2617 0.13791
814 1 10.018 4.0525 12.166
815 1 12.355 0.55984 6.7374
816 1 4.4116 3.2702 4.4629
817 1 11.958 11.945 9.0421
818 1 8.2178 3.7145 3.6066
819 1 11.207 3.1547 0.72488
820 1 2.1366 3.9584 7.5351
821 1 6.8995 5.1856 10.514
822 1 11.672 4.451 3.7792
823 1 9.1323 1.2428 4.9425
824 1 3.9345 3.7938 2.6401
825 1 0.42552 6.2484 2.6311
826 1 3.056 1.7867 1.182
827 1 11.915 9.359 10.065
828 1 11.827 1.7476 12.22
829 1 4.6814 11.773 1.0074
830 1 10.147 4.9257 0.32998
831 1 0.5039 0.11425 0.31973
832 1 5.8795 8.7914 11.26
833 1 8.341 7.0445 8.2808
834 1 7.8265 4.9668 5.2402
835 1 5.0183 2.209 0.70015
836 1 0.53821 4.7982 8.5088
837 1 10.125 2.0539 0.38196
838 1 3.4881 10.948 9.6485
839 1 12.394 4.6296 1.7831
840 1 3.9503 2.1274 3.8096
841 1 12.137 12.258 0.41474
842 1 11.949 3.4997 3.3143
843 1 4.3383 0.73515 2.2146
844 1 1.7261 9.203 2.5788
845 1 10.281 3.1312 0.20242
846 1 9.8102 4.6117 6.6822
847 1 4.942 5.866 5.3885
848 1 7.7657 7.0559 10.341
849 1 7.969 5.0405 10.54
850 1 6.0475 4.7092 4.4928
851 1 5.8573 5.6321 11.454
852 1 4.7339 2.9712 9.7443
853 1 2.9594 3.1439 5.4134
854 1 1.0125 11.059 11.15
855 1 7.7126 0.77796 0.26055
856 1 9.4992 1.721 5.8231
857 1 7.8813 11.009 11.746
858 1 9.1243 11.84 12.59
859 1 2.023 1.5873 4.711
860 1 12.459 10.786 7.4412
861 1 10.183 11.157 9.1422
862 1 4.6691 0.19491 9.2427
863 1 1.8686 4.1238 9.6142
864 1 9.6483 9.1967 4.1291
865 1 5.443 9.5717 4.0961
866 1 7.6016 11.004 7.7882
867 1 8.963 0.64061 10.62
868 1 6.9293 1.3073 12.358
869 1 1.535 3.4211 4.6198
870 1 1.9332 8.025 7.9369
871 1 3.8939 2.2034 0.64329
872 1 12.421 7.2634 3.335
873 1 12.492 10.707 0.18373
874 1 4.7822 2.7339 6.3602
875 1 2.7196 10.707 4.1671
876 1 0.36055 0.85441 3.5945
877 1 5.5409 7.2814 0.92823
878 1 8.4017 8.2749 5.5305
879 1 1.9617 4.5502 0.18645
880 1 3.4861 9.0463 6.8575
881 1 10.401 2.891 4.3231
882 1 3.6079 8.2955 11.958
883 1 7.6213 2.5479 0.99956
884 1 0.78116 9.6737 2.5329
885 1 9.0421 6.5969 7.553
886 1 4.7806 10.986 2.3047
887 1 8.5092 8.4404 6.6478
888 1 11.321 7.9883 12.295
889 1 4.3643 11.209 10.26
890 1 0.42082 4.7331 5.4009
891 1 8.9049 7.2022 9.2175
892 1 6.2309 9.1607 0.63889
893 1 0.55492 11.764 10.414
894 1 9.2618 7.4156 0.35967
895 1 9.2937 8.6891 8.6919
896 1 2.814 12.506 2.1797
897 1 4.47 3.0662 3.4007
898 1 6.5672 10.988 8.2327
899 1 0.084022 1.7757 11.525
900 1 5.6776 1.827 4.2772
901 1 2.6562 4.585 6.7787
902 1 3.5803 3.7814 0.83582
903 1 11.379 3.5942 11.035
904 1 3.4847 3.9597 10.841
905 1 4.6418 10.93 6.2137
906 1 2.2108 12.59 0.19168
907 1 9.3101 3.1665 12.292
908 1 4.9326 2.734 1.6167
909 1 5.2555 10.839 1.3316
910 1 0.22941 11.986 3.4642
911 1 11.574 3.7834 9.0126
912 1 1.5018 0.28694 7.2249
913 1 11.53 6.0596 0.11147
914 1 4.4754 0.86077 6.4646
915 1 7.3248 5.3469 2.0757
916 1 1.5048 10.233 11.713
917 1 11.212 3.0109 1.7926
918 1 2.3449 9.8201 5.5565
919 1 11.643 7.1644 11.603
920 1 0.3967 1.2836 7.3208
921 1 10.142 10.068 1.5254
922 1 5.995 9.3269 4.952
923 1 7.8913 9.7087 4.4415
924 1 9.6239 3.9072 0.51517
925 1 11.5 0.81099 10.628
926 1 12.133 6.8929 6.9872
927 1 6.2548 4.2122 10.349
928 1 2.1865 8.1615 11.42
929 1 4.6099 5.628 11.373
930 1 2.2544 10.773 5.1228
931 1 11.748 8.6784 6.2454
932 1 3.8492 8.9873 2.0582
933 1 5.5998 5.6945 4.5242
934 1 7.3296 8.0531 1.8161
935 1 10.536 0.17767 4.6716
936 1 0.96419 1.9585 4.7383
937 1 10.854 5.7981 2.6878
938 1 2.1766 4.4726 3.1276
939 1 12.424 5.8673 7.1952
940 1 3.5718 7.0348 10.592
941 1 3.178 10.632 3.167
942 1 7.4523 12.442 1.839
943 1 4.7572 1.0305 5.1817
944 1 2.9466 0.52632 12.27
945 1 4.1764 1.1017 7.5984
946 1 0.94584 10.807 6.0485
947 1 9.0876 11.303 2.5557
948 1 11.986 12.08 1.4653
949 1 10.783 2.5356 10.031
950 1 5.2878 11.524 6.9258
951 1 11.867 0.32611 8.645
952 1 0.5761 9.9217 9.405
953 1 9.3904 3.6072 10.443
954 1 1.9527 9.1204 3.6788
955 1 0.81578 0.54715 8.0107
956 1 4.3512 11.603 7.5163
957 1 10.892 9.1786 9.766
958 1 0.88314 1.9012 10.722
959 1 8.546 6.7211 6.4026
960 1 2.6334 6.4749 8.9593
961 1 5.8049 10.298 7.6866
962 1 7.6801 2.5996 3.8731
963 1 5.0388 11.195 3.3438
964 1 4.2416 10.311 9.2011
965 1 3.3012 11.501 3.8535
966 1 4.8634 10.292 10.149
967 1 1.644 12.083 6.5682
968 1 6.1696 2.7393 5.0124
969 1 5.8766 10.901 2.553
970 1 5.2058 4.7673 11.584
971 1 2.1952 3.116 2.4588
972 1 0.15268 2.5356 2.0403
973 1 5.5558 3.49 6.1042
974 1 9.9129 7.8334 10.966
975 1 9.414 11.65 8.0936
976 1 1.0736 6.9325 10.84
977 1 8.3931 3.6503 2.4585
978 1 9.9822 7.319 7.6427
979 1 0.16118 2.24 7.9116
980 1 10.996 8.9496 7.9265
981 1 0.89412 4.8653 11.29
982 1 11.47 4.0475 1.7904
983 1 11.832 3.5051 12.546
984 1 8.8032 4.8009 4.9238
985 1 4.4567 3.9129 11.299
986 1 9.0807 12.553 9.7315
987 1 9.8462 9.259 0.834
988 1 11.473 4.3212 11.929
989 1 2.4555 9.8371 0.93725
990 1 5.0654 3.2919 10.708
991 1 9.7299 1.7121 6.9741
992 1 3.1624 9.9039 4.8312
993 1 3.434 3.6885 4.6444
994 1 5.7664 0.095392 8.8262
995 1 0.96191 5.9861 0.093334
996 1 9.3045 4.4017 5.7941
997 1 10.778 10.04 7.8524
998 1 9.8104 3.0927 9.5963
999 1 6.3155 8.2426 2.2115
1000 1 2.9164 1.6602 6.431
1001 1 7.2673 9.3247 7.8898
1002 1 1.6003 10.187 9.7205
1003 1 10.61 6.4892 8.2335
1004 1 9.7741 2.0842 4.7427
1005 1 8.0212 0.89465 7.2342
1006 1 5.1834 9.5402 7.3455
1007 1 8.0249 10.051 8.0352
1008 1 9.5869 3.5685 5.0896
1009 1 6.511 9.3957 3.9397
1010 1 1.3335 11.946 3.47
1011 1 3.9409 2.9256 6.993
1012 1 9.1817 7.7158 8.2303
1013 1 12.59 10.965 3.6401
1014 1 3.9753 7.7496 5.1347
1015 1 7.2921 2.2473 8.4907
1016 1 2.0683 5.4727 6.4314
1017 1 1.2025 4.2553 12.116
1018 1 3.2762 5.1472 8.5159
1019 1 1.8858 0.23737 3.7857
1020 1 2.7442 4.569 9.2458
1021 1 8.0407 9.3886 11.378
1022 1 10.217 3.9192 3.0924
1023 1 8.0812 0.13001 10.095
1024 1 11.163 11.823 4.3415
1025 1 1.1954 0.57756 9.0111
1026 1 10.611 3.7867 4.9109
1027 1 11.276 9.8328 11.667
1028 1 5.6809 0.23152 9.8674
1029 1 6.3435 6.6739 0.6941
1030 1 0.77805 3.1374 7.5585
1031 1 0.0091301 12.392 5.1185
1032 1 5.4364 0.52585 4.2431
1033 1 6.434 4.4041 5.8015
1034 1 6.6963 1.2895 7.8027
1035 1 5.7078 10.619 12.048
1036 1 6.2267 6.172 12.315
1037 1 11.668 2.0073 6.2953
1038 1 0.54392 8.3503 11.936
1039 1 9.8447 7.3267 4.758
1040 1 12.058 10.013 3.7482
1041 1 8.1245 6.8238 5.3749
1042 1 1.8763 11.68 2.5857
1043 1 4.6898 8.5252 9.6045
1044 1 0.93195 7.2188 1.0536
1045 1 4.0009 5.5224 9.7769
1046 1 10.5 5.9092 12.569
1047 1 8.2777 5.9259 0.30768
1048 1 8.6053 3.6099 0.6014
1049 1 6.3308 12.358 0.35956
1050 1 10.893 7.1613 5.0069
1051 1 8.9185 1.0918 3.933
1052 1 6.9701 10.93 2.9686
1053 1 8.7705 4.2484 1.4478
1054 1 4.6107 1.7055 1.5691
1055 1 8.3447 11.981 11.827
1056 1 10.563 4.2368 11.264
1057 1 9.8471 4.8834 2.8731
1058 1 2.2983 10.69 9.0819
1059 1 1.1651 1.1545 6.5345
1060 1 7.0454 0.3067 10.456
1061 1 5.7614 7.394 2.85
1062 1 12.541 2.1633 10.276
1063 1 0.93744 2.3905 11.733
1064 1 10.232 3.1418 2.2656
1065 1 1.0667 12.61 5.1391
1066 1 10.97 2.0051 2.0075
1067 1 0.81271 1.8712 2.5607
1068 1 0.23347 5.1708 2.7179
1069 1 5.3943 9.7093 10.943
1070 1 3.1505 3.3228 1.9754
1071 1 7.2998 2.0817 2.9982
1072 1 9.5671 6.3193 9.4781
1073 1 9.902 3.1942 8.0503
1074 1 11.488 2.9303 4.3967
1075 1 9.6595 5.2255 7.5449
1076 1 3.8548 12.372 3.6968
1077 1 6.0498 6.1916 8.8116
1078 1 11.618 1.9063 4.1073
1079 1 6.8079 7.9411 5.8724
1080 1 5.6512 8.6052 9.131
1081 1 1.717 4.4067 4.0778
1082 1 9.7862 0.040511 7.87
1083 1 0.99596 10.95 3.4551
1084 1 12.183 9.7436 9.0668
1085 1 12.406 4.5936 4.5842
1086 1 6.4601 7.5314 1.4299
1087 1 8.0442 11.545 0.14205
1088 1 10.917 8.861 6.8654
1089 1 4.1088 11.714 1.9144
1090 1 3.6376 6.0284 4.1486
1091 1 7.1038 6.9213 5.6416
1092 1 11.346 10.193 9.6367
1093 1 6.3181 10.523 11.087
1094 1 6.7428 9.0994 2.8143
1095 1 11.321 3.7534 5.7922
1096 1 10.638 8.0508 6.2686
1097 1 0.59455 3.8665 4.7885
1098 1 4.6847 2.2211 4.5866
1099 1 11.214 6.2255 9.7867
1100 1 0.81524 0.079301 2.9349
1101 1 9.1605 4.8647 8.6413
1102 1 4.43 4.9616 5.8379
1103 1 1.6659 0.48963 11.703
1104 1 7.8778 2.2349 10.038
1105 1 6.6152 1.7808 4.8764
1106 1 0.09308 6.8629 1.758
1107 1 5.8322 8.3609 1.2002