********************************************************************************
*                       GENERAL UTILITY LATTICE PROGRAM                        *
*                                 Julian Gale                                  *
*                      Nanochemistry Research Institute                        *
*                           Department of Chemistry                            *
*                    Curtin University, Western Australia                      *
********************************************************************************
* Version = 4.0.7 * Last modified =  14th December 2012                        *
********************************************************************************
*  single       - perform a single point run                                   *
*  phonon       - calculate phonons for final geometry                         *
********************************************************************************

  Job Started  at 22:26.04 27th April      2013                               

  Number of CPUs =     1


  Total number of configurations input =   1

********************************************************************************
*  Input for Configuration =   1                                               *
********************************************************************************

  Formula = Si3O6                                                       

  Number of irreducible atoms/shells =       9


  Total number atoms/shells =       9

  Dimensionality = 3               :  Bulk   



  Cartesian lattice vectors (Angstroms) :

        4.916000    0.000000    0.000000
        0.000000    4.257200    0.000000
        0.000000    0.000000    5.405400

  Cell parameters (Angstroms/Degrees):

  a =       4.9160    alpha =  90.0000
  b =       4.2572    beta  =  90.0000
  c =       5.4054    gamma =  90.0000

  Initial cell volume =         113.126347 Angs**3

  Temperature of configuration =  0.000     K 

  Pressure of configuration =         0.000 GPa 

  Fractional coordinates of asymmetric unit :

--------------------------------------------------------------------------------
   No.  Atomic       x           y          z         Charge      Occupancy
        Label      (Frac)      (Frac)     (Frac)        (e)         (Frac)  
--------------------------------------------------------------------------------
      1 Si    c    0.469900    0.000000    0.666667     2.40000    1.000000    
      2 Si    c    0.000000    0.469900    0.333333     2.40000    1.000000    
      3 Si    c    0.530100    0.530100    0.000000     2.40000    1.000000    
      4 O     c    0.414100    0.268100    0.785400    -1.20000    1.000000    
      5 O     c    0.731900    0.146000    0.452067    -1.20000    1.000000    
      6 O     c    0.853900    0.585900    0.118733    -1.20000    1.000000    
      7 O     c    0.268100    0.414100    0.214600    -1.20000    1.000000    
      8 O     c    0.585900    0.854000    0.881278    -1.20000    1.000000    
      9 O     c    0.146000    0.731900    0.547933    -1.20000    1.000000    
--------------------------------------------------------------------------------


  Brillouin zone sampling points :

--------------------------------------------------------------------------------
  Point number          x          y          z            Weight
--------------------------------------------------------------------------------
        1           0.000000   0.000000   0.000000         0.0333
        2           0.017241   0.000000   0.000000         0.0333
        3           0.034483   0.000000   0.000000         0.0333
        4           0.051724   0.000000   0.000000         0.0333
        5           0.068966   0.000000   0.000000         0.0333
        6           0.086207   0.000000   0.000000         0.0333
        7           0.103448   0.000000   0.000000         0.0333
        8           0.120690   0.000000   0.000000         0.0333
        9           0.137931   0.000000   0.000000         0.0333
       10           0.155172   0.000000   0.000000         0.0333
       11           0.172414   0.000000   0.000000         0.0333
       12           0.189655   0.000000   0.000000         0.0333
       13           0.206897   0.000000   0.000000         0.0333
       14           0.224138   0.000000   0.000000         0.0333
       15           0.241379   0.000000   0.000000         0.0333
       16           0.258621   0.000000   0.000000         0.0333
       17           0.275862   0.000000   0.000000         0.0333
       18           0.293103   0.000000   0.000000         0.0333
       19           0.310345   0.000000   0.000000         0.0333
       20           0.327586   0.000000   0.000000         0.0333
       21           0.344828   0.000000   0.000000         0.0333
       22           0.362069   0.000000   0.000000         0.0333
       23           0.379310   0.000000   0.000000         0.0333
       24           0.396552   0.000000   0.000000         0.0333
       25           0.413793   0.000000   0.000000         0.0333
       26           0.431034   0.000000   0.000000         0.0333
       27           0.448276   0.000000   0.000000         0.0333
       28           0.465517   0.000000   0.000000         0.0333
       29           0.482759   0.000000   0.000000         0.0333
       30           0.500000   0.000000   0.000000         0.0333
--------------------------------------------------------------------------------


********************************************************************************
*  General input information                                                   *
********************************************************************************

  Species output for all configurations : 

--------------------------------------------------------------------------------
  Species    Type    Atomic    Atomic    Charge       Radii (Angs)     Library
                     Number     Mass       (e)     Cova   Ionic  VDW   Symbol
--------------------------------------------------------------------------------
    Si       Core       14      28.09   2.400000   1.200  0.000  2.100          
    O        Core        8      16.00  -1.200000   0.730  0.000  1.360          
--------------------------------------------------------------------------------


  Lattice summation method = Wolf et al

  Modified method - smoothed energy only / correct forces

  Eta    =     0.223000 Angstrom**-1
  Cutoff =    10.000000 Angstrom

  Time limit = Infinity

  Maximum range for interatomic potentials =    100000.000000 Angstroms

  General interatomic potentials :

--------------------------------------------------------------------------------
Atom  Types   Potential         A         B         C         D     Cutoffs(Ang)
  1     2                                                            Min    Max 
--------------------------------------------------------------------------------
Si   c Si   c Buckingham    0.872E+09  15.2      23.3      0.00     0.000 10.000
O    c O    c Buckingham     420.      2.85      215.      0.00     0.000 10.000
O    c Si   c Buckingham    0.256E+04  4.80      70.7      0.00     0.000 10.000
--------------------------------------------------------------------------------

********************************************************************************
*  Output for configuration   1                                                *
********************************************************************************


  Components of energy : 

--------------------------------------------------------------------------------
  Interatomic potentials     = 88301226719.69125366 eV
  Monopole - monopole (real) =        -119.23473283 eV
  Monopole - monopole (recip)=           0.00000000 eV
  Monopole - monopole (total)=        -119.23473283 eV
  Wolf sum self energy       =         -46.98922585 eV
--------------------------------------------------------------------------------
  Total lattice energy       = 88301226553.46730042 eV
--------------------------------------------------------------------------------
  Total lattice energy       =   8519718554540.0078 kJ/(mole unit cells)
--------------------------------------------------------------------------------

  Born effective charge tensors : 

-------------------------------------------------------------------------------
  Atom             x           y             z
-------------------------------------------------------------------------------
   1 Si    x       2.4000      0.0000      0.0000
           y       0.0000      2.4000      0.0000
           z       0.0000      0.0000      2.4000
-------------------------------------------------------------------------------
   2 Si    x       2.4000      0.0000      0.0000
           y       0.0000      2.4000      0.0000
           z       0.0000      0.0000      2.4000
-------------------------------------------------------------------------------
   3 Si    x       2.4000      0.0000      0.0000
           y       0.0000      2.4000      0.0000
           z       0.0000      0.0000      2.4000
-------------------------------------------------------------------------------
   4 O     x      -1.2000      0.0000      0.0000
           y       0.0000     -1.2000      0.0000
           z       0.0000      0.0000     -1.2000
-------------------------------------------------------------------------------
   5 O     x      -1.2000      0.0000      0.0000
           y       0.0000     -1.2000      0.0000
           z       0.0000      0.0000     -1.2000
-------------------------------------------------------------------------------
   6 O     x      -1.2000      0.0000      0.0000
           y       0.0000     -1.2000      0.0000
           z       0.0000      0.0000     -1.2000
-------------------------------------------------------------------------------
   7 O     x      -1.2000      0.0000      0.0000
           y       0.0000     -1.2000      0.0000
           z       0.0000      0.0000     -1.2000
-------------------------------------------------------------------------------
   8 O     x      -1.2000      0.0000      0.0000
           y       0.0000     -1.2000      0.0000
           z       0.0000      0.0000     -1.2000
-------------------------------------------------------------------------------
   9 O     x      -1.2000      0.0000      0.0000
           y       0.0000     -1.2000      0.0000
           z       0.0000      0.0000     -1.2000
-------------------------------------------------------------------------------




  Elastic Constant Matrix: (Units=GPa)

-------------------------------------------------------------------------------
  Indices      1         2         3         4         5         6    
-------------------------------------------------------------------------------
       1  ************************************************************
       2  ************************************************************
       3  ************************************************************
       4  ************************************************************
       5  ************************************************************
       6  ************************************************************
-------------------------------------------------------------------------------


  Elastic Compliance Matrix: (Units=1/GPa)

-------------------------------------------------------------------------------
  Indices      1         2         3         4         5         6    
-------------------------------------------------------------------------------
       1   -0.000000 -0.000000 -0.000000  0.000000  0.000000  0.000000
       2   -0.000000 -0.000000 -0.000000 -0.000000 -0.000000  0.000000
       3   -0.000000 -0.000000 -0.000000 -0.000000 -0.000000 -0.000000
       4    0.000000 -0.000000 -0.000000 -0.000000  0.000000 -0.000000
       5    0.000000 -0.000000 -0.000000  0.000000 -0.000000 -0.000000
       6    0.000000  0.000000 -0.000000 -0.000000 -0.000000 -0.000000
-------------------------------------------------------------------------------

  Mechanical properties :

-------------------------------------------------------------------------------
  Convention :                    Reuss         Voigt         Hill
-------------------------------------------------------------------------------
  Bulk  Modulus (GPa)     =       0.00000 ************* *************
  Shear Modulus (GPa)     =       0.00000 ************* *************
-------------------------------------------------------------------------------
  Velocity S-wave (km/s)  =       0.00000  -72595.46281  -51332.74403
  Velocity P-wave (km/s)  =       0.00000   90853.11633   64242.85465
-------------------------------------------------------------------------------
-------------------------------------------------------------------------------
  Stress axis :                     x             y             z
-------------------------------------------------------------------------------
  Youngs Moduli (GPa)     =       0.00000       0.00000       0.00000
-------------------------------------------------------------------------------
  Poissons Ratio (x)      =                     0.00000       0.00000
  Poissons Ratio (y)      =       0.00000                     0.00000
  Poissons Ratio (z)      =       0.00000       0.00000
-------------------------------------------------------------------------------


  Piezoelectric Strain Matrix: (Units=C/m**2)

-------------------------------------------------------------------------------
  Indices      1         2         3         4         5         6    
-------------------------------------------------------------------------------
       x     0.07727   0.71660  -0.17761  -0.41494   0.15612   1.19416
       y     0.02456   0.87705  -0.35230   0.01765  -0.15564   0.96449
       z    -0.06122  -0.08565  -0.01780   0.35586  -0.05399  -0.37826
-------------------------------------------------------------------------------


  Piezoelectric Stress Matrix: (Units=10**-11 C/N)

-------------------------------------------------------------------------------
  Indices      1         2         3         4         5         6    
-------------------------------------------------------------------------------
       x    -0.00000  -0.00000  -0.00000   0.00000  -0.00000  -0.00000
       y    -0.00000  -0.00000   0.00000  -0.00000   0.00000  -0.00000
       z     0.00000   0.00000   0.00000  -0.00000   0.00000   0.00000
-------------------------------------------------------------------------------


  Static dielectric constant tensor : 

-------------------------------------------------------------------------------
              x         y         z
-------------------------------------------------------------------------------
       x     0.98098  -0.00075  -0.00013
       y    -0.00075   0.98221   0.00057
       z    -0.00013   0.00057   0.98209
--------------------------------------------------------------------------------

  Static refractive indices : 

-------------------------------------------------------------------------------
    1 =    0.99026      2 =    0.99082      3 =    0.99144
-------------------------------------------------------------------------------


  Phonon Calculation : 

  K direction for n-a correction at gamma =  1.00000  1.00000  1.00000

  Number of k points for this configuration =       30

--------------------------------------------------------------------------------
  K point      1 =   0.000000  0.000000  0.000000  Weight =    0.033
--------------------------------------------------------------------------------

  Frequencies (cm-1) [NB: Negative implies an imaginary mode]:

************************************************-5502.63-5329.04-5316.97
-4290.53-4156.97-4084.93-4071.40-3964.70-3905.23-3882.42-3799.34-3757.22
-3661.34-3582.32-3475.07-3286.50-3228.02-3043.51   -0.02   -0.01    0.01


--------------------------------------------------------------------------------
  K point      2 =   0.017241  0.000000  0.000000  Weight =    0.033
--------------------------------------------------------------------------------

  Frequencies (cm-1) [NB: Negative implies an imaginary mode]:

************************************************************************
-4293.29-4172.91-4152.47-4093.28-4031.99-3980.10-3920.65-3842.85-3816.62
-3798.50-3735.31-3691.26-3650.82-3460.48-3325.51-3203.95-3122.85-3029.76


--------------------------------------------------------------------------------
  K point      3 =   0.034483  0.000000  0.000000  Weight =    0.033
--------------------------------------------------------------------------------

  Frequencies (cm-1) [NB: Negative implies an imaginary mode]:

************************************************************************
-4293.27-4173.83-4152.66-4093.57-4032.48-3980.90-3920.68-3844.34-3818.64
-3798.42-3735.76-3692.87-3651.04-3462.05-3324.76-3204.46-3121.59-3029.84


--------------------------------------------------------------------------------
  K point      4 =   0.051724  0.000000  0.000000  Weight =    0.033
--------------------------------------------------------------------------------

  Frequencies (cm-1) [NB: Negative implies an imaginary mode]:

************************************************************************
-4293.16-4172.57-4151.86-4093.69-4032.19-3981.08-3920.46-3845.80-3820.34
-3797.89-3735.73-3693.06-3651.25-3464.03-3321.43-3204.70-3116.16-3029.81


--------------------------------------------------------------------------------
  K point      5 =   0.068966  0.000000  0.000000  Weight =    0.033
--------------------------------------------------------------------------------

  Frequencies (cm-1) [NB: Negative implies an imaginary mode]:

************************************************************************
-4293.00-4170.72-4150.59-4093.83-4031.75-3981.21-3920.13-3847.83-3822.45
-3797.17-3735.80-3692.67-3651.44-3466.63-3316.94-3204.98-3107.56-3029.64


--------------------------------------------------------------------------------
  K point      6 =   0.086207  0.000000  0.000000  Weight =    0.033
--------------------------------------------------------------------------------

  Frequencies (cm-1) [NB: Negative implies an imaginary mode]:

************************************************************************
-4292.80-4168.68-4148.91-4094.01-4031.32-3981.40-3919.71-3850.61-3824.99
-3796.34-3736.20-3691.59-3651.56-3469.80-3311.83-3205.34-3095.53-3029.18


--------------------------------------------------------------------------------
  K point      7 =   0.103448  0.000000  0.000000  Weight =    0.033
--------------------------------------------------------------------------------

  Frequencies (cm-1) [NB: Negative implies an imaginary mode]:

************************************************************************
-4292.55-4166.67-4146.89-4094.27-4031.02-3981.69-3919.21-3854.18-3827.92
-3795.51-3737.08-3689.67-3651.49-3473.43-3306.61-3205.75-3079.96-3028.00


--------------------------------------------------------------------------------
  K point      8 =   0.120690  0.000000  0.000000  Weight =    0.033
--------------------------------------------------------------------------------

  Frequencies (cm-1) [NB: Negative implies an imaginary mode]:

************************************************************************
-4292.28-4164.82-4144.61-4094.62-4030.94-3982.17-3918.67-3858.57-3831.16
-3794.76-3738.48-3686.93-3651.11-3477.44-3301.73-3206.16-3061.82-3024.73


--------------------------------------------------------------------------------
  K point      9 =   0.137931  0.000000  0.000000  Weight =    0.033
--------------------------------------------------------------------------------

  Frequencies (cm-1) [NB: Negative implies an imaginary mode]:

************************************************************************
-4291.98-4163.17-4142.19-4095.10-4031.15-3982.87-3918.12-3863.71-3834.64
-3794.18-3740.32-3683.59-3650.28-3481.68-3297.54-3206.49-3046.04-3014.26


--------------------------------------------------------------------------------
  K point     10 =   0.155172  0.000000  0.000000  Weight =    0.033
--------------------------------------------------------------------------------

  Frequencies (cm-1) [NB: Negative implies an imaginary mode]:

************************************************************************
-4291.67-4161.73-4139.74-4095.71-4031.70-3983.85-3917.62-3869.47-3838.26
-3793.80-3742.45-3679.99-3648.82-3486.06-3294.24-3206.67-3038.59-2990.81


--------------------------------------------------------------------------------
  K point     11 =   0.172414  0.000000  0.000000  Weight =    0.033
--------------------------------------------------------------------------------

  Frequencies (cm-1) [NB: Negative implies an imaginary mode]:

************************************************************************
-4291.35-4160.49-4137.36-4096.47-4032.57-3985.16-3917.24-3875.62-3841.94
-3793.65-3744.72-3676.52-3646.57-3490.45-3291.88-3206.61-3035.42-2958.89


--------------------------------------------------------------------------------
  K point     12 =   0.189655  0.000000  0.000000  Weight =    0.033
--------------------------------------------------------------------------------

  Frequencies (cm-1) [NB: Negative implies an imaginary mode]:

************************************************************************
-4291.04-4159.44-4135.09-4097.40-4033.76-3986.80-3917.07-3881.91-3845.60
-3793.71-3746.99-3673.45-3643.47-3494.77-3290.43-3206.27-3033.21-2922.58


--------------------------------------------------------------------------------
  K point     13 =   0.206897  0.000000  0.000000  Weight =    0.033
--------------------------------------------------------------------------------

  Frequencies (cm-1) [NB: Negative implies an imaginary mode]:

************************************************************************
-4290.74-4158.57-4132.97-4098.49-4035.21-3988.79-3917.25-3887.99-3849.14
-3793.94-3749.18-3670.88-3639.56-3498.94-3289.77-3205.63-3030.93-2883.86


--------------------------------------------------------------------------------
  K point     14 =   0.224138  0.000000  0.000000  Weight =    0.033
--------------------------------------------------------------------------------

  Frequencies (cm-1) [NB: Negative implies an imaginary mode]:

************************************************************************
-4290.46-4157.90-4131.01-4099.72-4036.86-3991.10-3918.00-3893.46-3852.50
-3794.30-3751.22-3668.76-3635.04-3502.90-3289.75-3204.68-3028.18-2844.21


--------------------------------------------------------------------------------
  K point     15 =   0.241379  0.000000  0.000000  Weight =    0.033
--------------------------------------------------------------------------------

  Frequencies (cm-1) [NB: Negative implies an imaginary mode]:

************************************************************************
-4290.20-4157.43-4129.24-4101.06-4038.66-3993.67-3919.55-3897.89-3855.61
-3794.74-3753.10-3666.95-3630.10-3506.61-3290.24-3203.45-3024.68-2805.02


--------------------------------------------------------------------------------
  K point     16 =   0.258621  0.000000  0.000000  Weight =    0.033
--------------------------------------------------------------------------------

  Frequencies (cm-1) [NB: Negative implies an imaginary mode]:

************************************************************************
-4289.98-4157.19-4127.65-4102.43-4040.52-3996.43-3922.02-3901.00-3858.45
-3795.20-3754.79-3665.32-3624.91-3510.05-3291.08-3202.00-3020.23-2767.61


--------------------------------------------------------------------------------
  K point     17 =   0.275862  0.000000  0.000000  Weight =    0.033
--------------------------------------------------------------------------------

  Frequencies (cm-1) [NB: Negative implies an imaginary mode]:

************************************************************************
-4289.79-4157.16-4126.29-4103.77-4042.38-3999.28-3925.21-3902.88-3861.02
-3795.65-3756.31-3663.78-3619.58-3513.21-3292.14-3200.36-3014.62-2733.22


--------------------------------------------------------------------------------
  K point     18 =   0.293103  0.000000  0.000000  Weight =    0.033
--------------------------------------------------------------------------------

  Frequencies (cm-1) [NB: Negative implies an imaginary mode]:

************************************************************************
-4289.63-4157.34-4125.19-4104.97-4044.21-4002.11-3928.69-3903.90-3863.33
-3796.05-3757.67-3662.27-3614.18-3516.10-3293.33-3198.60-3007.65-2702.97


--------------------------------------------------------------------------------
  K point     19 =   0.310345  0.000000  0.000000  Weight =    0.033
--------------------------------------------------------------------------------

  Frequencies (cm-1) [NB: Negative implies an imaginary mode]:

************************************************************************
-4289.51-4157.72-4124.39-4105.92-4045.96-4004.80-3932.09-3904.39-3865.42
-3796.36-3758.88-3660.77-3608.74-3518.73-3294.53-3196.77-2999.13-2677.77


--------------------------------------------------------------------------------
  K point     20 =   0.327586  0.000000  0.000000  Weight =    0.033
--------------------------------------------------------------------------------

  Frequencies (cm-1) [NB: Negative implies an imaginary mode]:

************************************************************************
-4289.42-4158.25-4123.92-4106.56-4047.60-4007.26-3935.19-3904.59-3867.32
-3796.59-3759.95-3659.28-3603.31-3521.10-3295.69-3194.93-2988.85-2658.36


--------------------------------------------------------------------------------
  K point     21 =   0.344828  0.000000  0.000000  Weight =    0.033
--------------------------------------------------------------------------------

  Frequencies (cm-1) [NB: Negative implies an imaginary mode]:

************************************************************************
-4289.35-4158.90-4123.78-4106.86-4049.12-4009.41-3937.91-3904.63-3869.07
-3796.72-3760.89-3657.81-3597.93-3523.24-3296.75-3193.12-2976.65-2645.21


--------------------------------------------------------------------------------
  K point     22 =   0.362069  0.000000  0.000000  Weight =    0.033
--------------------------------------------------------------------------------

  Frequencies (cm-1) [NB: Negative implies an imaginary mode]:

************************************************************************
-4289.32-4159.59-4123.90-4106.86-4050.49-4011.20-3940.20-3904.59-3870.68
-3796.75-3761.72-3656.38-3592.66-3525.16-3297.68-3191.39-2962.35-2638.54


--------------------------------------------------------------------------------
  K point     23 =   0.379310  0.000000  0.000000  Weight =    0.033
--------------------------------------------------------------------------------

  Frequencies (cm-1) [NB: Negative implies an imaginary mode]:

************************************************************************
-4289.30-4160.29-4124.20-4106.65-4051.71-4012.63-3942.08-3904.54-3872.17
-3796.71-3762.45-3655.03-3587.59-3526.87-3298.45-3189.78-2945.86-2638.27


--------------------------------------------------------------------------------
  K point     24 =   0.396552  0.000000  0.000000  Weight =    0.033
--------------------------------------------------------------------------------

  Frequencies (cm-1) [NB: Negative implies an imaginary mode]:

************************************************************************
-4289.30-4160.95-4124.59-4106.31-4052.76-4013.71-3943.58-3904.50-3873.53
-3796.61-3763.09-3653.78-3582.82-3528.38-3299.07-3188.32-2927.12-2644.11


--------------------------------------------------------------------------------
  K point     25 =   0.413793  0.000000  0.000000  Weight =    0.033
--------------------------------------------------------------------------------

  Frequencies (cm-1) [NB: Negative implies an imaginary mode]:

************************************************************************
-4289.31-4161.52-4125.00-4105.92-4053.65-4014.49-3944.73-3904.50-3874.74
-3796.47-3763.64-3652.67-3578.47-3529.69-3299.54-3187.05-2906.21-2655.50


--------------------------------------------------------------------------------
  K point     26 =   0.431034  0.000000  0.000000  Weight =    0.033
--------------------------------------------------------------------------------

  Frequencies (cm-1) [NB: Negative implies an imaginary mode]:

************************************************************************
-4289.32-4161.99-4125.38-4105.56-4054.37-4015.01-3945.59-3904.54-3875.78
-3796.32-3764.09-3651.72-3574.66-3530.79-3299.88-3185.98-2883.32-2671.68


--------------------------------------------------------------------------------
  K point     27 =   0.448276  0.000000  0.000000  Weight =    0.033
--------------------------------------------------------------------------------

  Frequencies (cm-1) [NB: Negative implies an imaginary mode]:

************************************************************************
-4289.34-4162.36-4125.69-4105.24-4054.92-4015.34-3946.19-3904.61-3876.61
-3796.17-3764.46-3650.96-3571.53-3531.68-3300.11-3185.14-2858.86-2691.66


--------------------------------------------------------------------------------
  K point     28 =   0.465517  0.000000  0.000000  Weight =    0.033
--------------------------------------------------------------------------------

  Frequencies (cm-1) [NB: Negative implies an imaginary mode]:

************************************************************************
-4289.36-4162.62-4125.93-4105.01-4055.31-4015.54-3946.58-3904.69-3877.22
-3796.05-3764.72-3650.40-3569.20-3532.33-3300.26-3184.53-2833.64-2714.10


--------------------------------------------------------------------------------
  K point     29 =   0.482759  0.000000  0.000000  Weight =    0.033
--------------------------------------------------------------------------------

  Frequencies (cm-1) [NB: Negative implies an imaginary mode]:

************************************************************************
-4289.37-4162.77-4126.07-4104.86-4055.54-4015.63-3946.80-3904.75-3877.60
-3795.97-3764.89-3650.06-3567.76-3532.74-3300.34-3184.16-2809.84-2736.41


--------------------------------------------------------------------------------
  K point     30 =   0.500000  0.000000  0.000000  Weight =    0.033
--------------------------------------------------------------------------------

  Frequencies (cm-1) [NB: Negative implies an imaginary mode]:

************************************************************************
-4289.37-4162.82-4126.12-4104.81-4055.62-4015.66-3946.87-3904.77-3877.72
-3795.94-3764.94-3649.95-3567.27-3532.88-3300.36-3184.04-2796.89-2748.89


--------------------------------------------------------------------------------
  Phonon properties (per mole of unit cells): Temperature =      0.000 K
--------------------------------------------------------------------------------
  Zero point energy            =        0.000000 eV
--------------------------------------------------------------------------------

  Phonon dispersion curves : 

--------------------------------------------------------------------------------
  Section number =   1
--------------------------------------------------------------------------------
  Frequency (cm-1) Phonon dispersion                                            
--------------------------------------------------------------------------------
     9.60   |                                                            
     9.20   |                                                            
     8.80   |                                                            
     8.40   |                                                            
     8.00   |                                                            
     7.60   |                                                            
     7.20   |                                                            
     6.80   |                                                            
     6.40   |                                                            
     6.00   |                                                            
     5.60   |                                                            
     5.20   |                                                            
     4.80   |                                                            
     4.40   |                                                            
     4.00   |                                                            
     3.60   |                                                            
     3.20   |                                                            
     2.80   |                                                            
     2.40   |                                                            
     2.00   |                                                            
     1.60   |                                                            
     1.20   |                                                            
     0.80   |                                                            
     0.40   |                                                            
     0.00   | *                                                          
--------------------------------------------------------------------------------

  XYZ File written as gulp.xyz                                


  Time to end of properties =       0.1040 seconds


  Peak dynamic memory used =       0.51 MB 


  Timing analysis for GULP :

--------------------------------------------------------------------------------
  Task / Subroutine                                          Time (Seconds)
--------------------------------------------------------------------------------
  Calculation of real space energy and derivatives                0.0600
  Calculation of phonons                                          0.0880
  Calculation of scattering                                       0.0000
  Disk read/write operations to scratch files                     0.0040
--------------------------------------------------------------------------------
  Total CPU time                                                  0.1040
--------------------------------------------------------------------------------


  Job Finished at 22:26.04 27th April      2013                               

