********************************************************************************
*                       GENERAL UTILITY LATTICE PROGRAM                        *
*                                 Julian Gale                                  *
*                      Nanochemistry Research Institute                        *
*                           Department of Chemistry                            *
*                    Curtin University, Western Australia                      *
********************************************************************************
* Version = 4.0.7 * Last modified =  14th December 2012                        *
********************************************************************************

**** Warning - inter/intra/both directive given on potential line ****
**** but the molecule directive is currently inactive             ****

**** Warning - inter/intra/both directive given on potential line ****
**** but the molecule directive is currently inactive             ****

**** Warning - inter/intra/both directive given on potential line ****
**** but the molecule directive is currently inactive             ****
*  single       - perform a single point run                                   *
*  phonon       - calculate phonons for final geometry                         *
********************************************************************************

  Job Started  at 09:38.47 15th April      2013                               

  Number of CPUs =     1


  Total number of configurations input =   1

********************************************************************************
*  Input for Configuration =   1                                               *
********************************************************************************

  Formula = Si3O6                                                       

  Number of irreducible atoms/shells =       9


  Total number atoms/shells =       9

  Dimensionality = 3               :  Bulk   



  Cartesian lattice vectors (Angstroms) :

        4.913400    0.000000    0.000000
       -2.456700    4.255129    0.000000
        0.000000    0.000000    5.405200

  Cell parameters (Angstroms/Degrees):

  a =       4.9134    alpha =  90.0000
  b =       4.9134    beta  =  90.0000
  c =       5.4052    gamma = 120.0000

  Initial cell volume =         113.007337 Angs**3

  Temperature of configuration =  0.000     K 

  Pressure of configuration =         0.000 GPa 

  Fractional coordinates of asymmetric unit :

--------------------------------------------------------------------------------
   No.  Atomic       x           y          z         Charge      Occupancy
        Label      (Frac)      (Frac)     (Frac)        (e)         (Frac)  
--------------------------------------------------------------------------------
      1 Si    c    0.469900    0.000000    0.666600     2.40000    1.000000    
      2 Si    c    0.000000    0.469900    0.333300     2.40000    1.000000    
      3 Si    c    0.530100    0.530100    0.000000     2.40000    1.000000    
      4 O     c    0.414100    0.268100    0.785400    -1.20000    1.000000    
      5 O     c    0.731900    0.146000    0.452000    -1.20000    1.000000    
      6 O     c    0.853900    0.585800    0.118700    -1.20000    1.000000    
      7 O     c    0.269100    0.414100    0.214600    -1.20000    1.000000    
      8 O     c    0.585800    0.853900    0.881200    -1.20000    1.000000    
      9 O     c    0.146000    0.731900    0.547900    -1.20000    1.000000    
--------------------------------------------------------------------------------


  Brillouin zone sampling points :

--------------------------------------------------------------------------------
  Point number          x          y          z            Weight
--------------------------------------------------------------------------------
        1           0.000000   0.000000   0.000000         0.0333
        2           0.017241   0.000000   0.000000         0.0333
        3           0.034483   0.000000   0.000000         0.0333
        4           0.051724   0.000000   0.000000         0.0333
        5           0.068966   0.000000   0.000000         0.0333
        6           0.086207   0.000000   0.000000         0.0333
        7           0.103448   0.000000   0.000000         0.0333
        8           0.120690   0.000000   0.000000         0.0333
        9           0.137931   0.000000   0.000000         0.0333
       10           0.155172   0.000000   0.000000         0.0333
       11           0.172414   0.000000   0.000000         0.0333
       12           0.189655   0.000000   0.000000         0.0333
       13           0.206897   0.000000   0.000000         0.0333
       14           0.224138   0.000000   0.000000         0.0333
       15           0.241379   0.000000   0.000000         0.0333
       16           0.258621   0.000000   0.000000         0.0333
       17           0.275862   0.000000   0.000000         0.0333
       18           0.293103   0.000000   0.000000         0.0333
       19           0.310345   0.000000   0.000000         0.0333
       20           0.327586   0.000000   0.000000         0.0333
       21           0.344828   0.000000   0.000000         0.0333
       22           0.362069   0.000000   0.000000         0.0333
       23           0.379310   0.000000   0.000000         0.0333
       24           0.396552   0.000000   0.000000         0.0333
       25           0.413793   0.000000   0.000000         0.0333
       26           0.431034   0.000000   0.000000         0.0333
       27           0.448276   0.000000   0.000000         0.0333
       28           0.465517   0.000000   0.000000         0.0333
       29           0.482759   0.000000   0.000000         0.0333
       30           0.500000   0.000000   0.000000         0.0333
--------------------------------------------------------------------------------


********************************************************************************
*  General input information                                                   *
********************************************************************************

  Species output for all configurations : 

--------------------------------------------------------------------------------
  Species    Type    Atomic    Atomic    Charge       Radii (Angs)     Library
                     Number     Mass       (e)     Cova   Ionic  VDW   Symbol
--------------------------------------------------------------------------------
    Si       Core       14      28.09   2.400000   1.200  0.000  2.100          
    O        Core        8      16.00  -1.200000   0.730  0.000  1.360          
--------------------------------------------------------------------------------


  Lattice summation method = Wolf et al

  Modified method - smoothed energy only / correct forces

  Eta    =     0.223000 Angstrom**-1
  Cutoff =    12.000000 Angstrom

  Time limit = Infinity

  Maximum range for interatomic potentials =    100000.000000 Angstroms

  General interatomic potentials :

--------------------------------------------------------------------------------
Atom  Types   Potential         A         B         C         D     Cutoffs(Ang)
  1     2                                                            Min    Max 
--------------------------------------------------------------------------------
Si   c Si   c Buckingham    0.872E+09 0.657E-01  23.3      0.00     0.000 12.000
O    c O    c Buckingham     420.     0.351      215.      0.00     0.000 12.000
O    c Si   c Buckingham    0.256E+04 0.209      70.7      0.00     0.000 12.000
Si   c Si   c Lenn/es 12  6  13.2     0.400      0.00      0.00     0.000  8.500
Si   c Si   c Lenn/es 12  6 0.478E-03  2.20      0.00      0.00     0.000  8.500
Si   c Si   c Lenn/es 12  6 0.112E-01  1.30      0.00      0.00     0.000  8.500
--------------------------------------------------------------------------------

********************************************************************************
*  Output for configuration   1                                                *
********************************************************************************


  Components of energy : 

--------------------------------------------------------------------------------
  Interatomic potentials     =         -48.63758000 eV
  Monopole - monopole (real) =        -124.02440981 eV
  Monopole - monopole (recip)=           0.00000000 eV
  Monopole - monopole (total)=        -124.02440981 eV
  Wolf sum self energy       =         -46.96153530 eV
--------------------------------------------------------------------------------
  Total lattice energy       =        -219.62352510 eV
--------------------------------------------------------------------------------
  Total lattice energy       =          -21190.3129 kJ/(mole unit cells)
--------------------------------------------------------------------------------

  Born effective charge tensors : 

-------------------------------------------------------------------------------
  Atom             x           y             z
-------------------------------------------------------------------------------
   1 Si    x       2.4000      0.0000      0.0000
           y       0.0000      2.4000      0.0000
           z       0.0000      0.0000      2.4000
-------------------------------------------------------------------------------
   2 Si    x       2.4000      0.0000      0.0000
           y       0.0000      2.4000      0.0000
           z       0.0000      0.0000      2.4000
-------------------------------------------------------------------------------
   3 Si    x       2.4000      0.0000      0.0000
           y       0.0000      2.4000      0.0000
           z       0.0000      0.0000      2.4000
-------------------------------------------------------------------------------
   4 O     x      -1.2000      0.0000      0.0000
           y       0.0000     -1.2000      0.0000
           z       0.0000      0.0000     -1.2000
-------------------------------------------------------------------------------
   5 O     x      -1.2000      0.0000      0.0000
           y       0.0000     -1.2000      0.0000
           z       0.0000      0.0000     -1.2000
-------------------------------------------------------------------------------
   6 O     x      -1.2000      0.0000      0.0000
           y       0.0000     -1.2000      0.0000
           z       0.0000      0.0000     -1.2000
-------------------------------------------------------------------------------
   7 O     x      -1.2000      0.0000      0.0000
           y       0.0000     -1.2000      0.0000
           z       0.0000      0.0000     -1.2000
-------------------------------------------------------------------------------
   8 O     x      -1.2000      0.0000      0.0000
           y       0.0000     -1.2000      0.0000
           z       0.0000      0.0000     -1.2000
-------------------------------------------------------------------------------
   9 O     x      -1.2000      0.0000      0.0000
           y       0.0000     -1.2000      0.0000
           z       0.0000      0.0000     -1.2000
-------------------------------------------------------------------------------




  Elastic Constant Matrix: (Units=GPa)

-------------------------------------------------------------------------------
  Indices      1         2         3         4         5         6    
-------------------------------------------------------------------------------
       1   -137.7067 -576.8419 -569.1381  -24.1111   -1.2787    0.0318
       2   -576.8419 -136.3607 -567.5869   22.1930   -0.7748    0.6494
       3   -569.1381 -567.5869 -386.4183   -1.1874   -0.3115    0.6615
       4    -24.1111   22.1930   -1.1874  403.9837   -1.0271    0.4383
       5     -1.2787   -0.7748   -0.3115   -1.0271  403.7456  -23.1559
       6      0.0318    0.6494    0.6615    0.4383  -23.1559  219.3353
-------------------------------------------------------------------------------


  Elastic Compliance Matrix: (Units=1/GPa)

-------------------------------------------------------------------------------
  Indices      1         2         3         4         5         6    
-------------------------------------------------------------------------------
       1    0.001662 -0.000622 -0.001534  0.000129  0.000004  0.000006
       2   -0.000622  0.001670 -0.001536 -0.000133 -0.000000  0.000000
       3   -0.001534 -0.001536  0.001928 -0.000002 -0.000006 -0.000002
       4    0.000129 -0.000133 -0.000002  0.002490  0.000006 -0.000004
       5    0.000004 -0.000000 -0.000006  0.000006  0.002492  0.000263
       6    0.000006  0.000000 -0.000002 -0.000004  0.000263  0.004587
-------------------------------------------------------------------------------

  Mechanical properties :

-------------------------------------------------------------------------------
  Convention :                    Reuss         Voigt         Hill
-------------------------------------------------------------------------------
  Bulk  Modulus (GPa)     =    -470.57942    -454.17993    -462.37968
  Shear Modulus (GPa)     =     232.50223     275.61830     254.06026
-------------------------------------------------------------------------------
  Velocity S-wave (km/s)  =       9.36865      10.20041       9.79337
  Velocity P-wave (km/s)  =       7.78582       5.72065       6.83172
-------------------------------------------------------------------------------
  Compressibility (1/GPa) =   -0.00212504
-------------------------------------------------------------------------------
  Stress axis :                     x             y             z
-------------------------------------------------------------------------------
  Youngs Moduli (GPa)     =     601.82911     598.90979     518.59688
-------------------------------------------------------------------------------
  Poissons Ratio (x)      =                     0.37245       0.79566
  Poissons Ratio (y)      =       0.37426                     0.79666
  Poissons Ratio (z)      =       0.92336       0.92004
-------------------------------------------------------------------------------


  Piezoelectric Strain Matrix: (Units=C/m**2)

-------------------------------------------------------------------------------
  Indices      1         2         3         4         5         6    
-------------------------------------------------------------------------------
       x     3.91657  -3.98720  -0.03154  -3.08823  -0.04274  -0.00619
       y    -0.02474  -0.01772  -0.01375   0.05790   3.09043  -3.95923
       z    -0.03743   0.04059   0.04148   0.01223  -0.01219  -0.00309
-------------------------------------------------------------------------------


  Piezoelectric Stress Matrix: (Units=10**-11 C/N)

-------------------------------------------------------------------------------
  Indices      1         2         3         4         5         6    
-------------------------------------------------------------------------------
       x     0.86377  -0.86327   0.00603  -0.66548  -0.01121  -0.00026
       y    -0.00156  -0.00018   0.00255   0.01783   0.66598  -1.73484
       z    -0.01496   0.00257   0.00751   0.00201  -0.00315  -0.00178
-------------------------------------------------------------------------------


  Static dielectric constant tensor : 

-------------------------------------------------------------------------------
              x         y         z
-------------------------------------------------------------------------------
       x     1.19869   0.00090   0.00046
       y     0.00090   1.19924   0.00029
       z     0.00046   0.00029   1.23044
--------------------------------------------------------------------------------

  Static refractive indices : 

-------------------------------------------------------------------------------
    1 =    1.09454      2 =    1.09540      3 =    1.10926
-------------------------------------------------------------------------------


  Phonon Calculation : 

  K direction for n-a correction at gamma =  1.00000  1.00000  1.00000

  Number of k points for this configuration =       30

--------------------------------------------------------------------------------
  K point      1 =   0.000000  0.000000  0.000000  Weight =    0.033
--------------------------------------------------------------------------------

  Frequencies (cm-1) [NB: Negative implies an imaginary mode]:

-1621.96-1604.90-1592.00-1533.69-1423.24-1417.95 -854.07 -713.37 -705.50
 -650.08 -621.10   -0.00    0.00    0.00  355.55  591.89  614.42  622.51
  625.46  633.45  699.62  713.51  741.84  782.67  855.22  886.99  964.60


--------------------------------------------------------------------------------
  K point      2 =   0.017241  0.000000  0.000000  Weight =    0.033
--------------------------------------------------------------------------------

  Frequencies (cm-1) [NB: Negative implies an imaginary mode]:

-1621.95-1604.93-1592.32-1591.53-1423.63-1421.51 -854.01 -713.89 -712.65
 -650.20 -649.24  -17.44   13.11   16.93  355.82  591.24  614.22  615.07
  624.95  625.54  699.43  713.50  713.65  782.75  854.78  854.92  887.18


--------------------------------------------------------------------------------
  K point      3 =   0.034483  0.000000  0.000000  Weight =    0.033
--------------------------------------------------------------------------------

  Frequencies (cm-1) [NB: Negative implies an imaginary mode]:

-1621.92-1604.99-1592.06-1590.93-1423.91-1421.61 -853.86 -715.39 -713.70
 -648.71 -647.47  -34.78   26.20   33.85  356.61  589.50  613.82  616.52
  624.79  625.54  698.96  713.59  715.17  782.98  854.00  855.26  887.71


--------------------------------------------------------------------------------
  K point      4 =   0.051724  0.000000  0.000000  Weight =    0.033
--------------------------------------------------------------------------------

  Frequencies (cm-1) [NB: Negative implies an imaginary mode]:

-1621.87-1605.07-1591.86-1589.73-1424.40-1421.75 -853.60 -717.73 -715.34
 -646.47 -644.54  -51.95   39.23   50.74  357.89  586.98  613.14  618.44
  624.50  625.67  698.41  713.70  717.46  783.35  852.57  856.05  888.53


--------------------------------------------------------------------------------
  K point      5 =   0.068966  0.000000  0.000000  Weight =    0.033
--------------------------------------------------------------------------------

  Frequencies (cm-1) [NB: Negative implies an imaginary mode]:

-1621.79-1605.19-1591.65-1588.01-1425.11-1421.91 -853.23 -720.75 -717.43
 -643.71 -640.56  -68.87   52.18   67.56  359.64  583.98  612.23  620.17
  624.10  626.27  697.92  713.90  720.31  783.87  850.69  857.14  889.55


--------------------------------------------------------------------------------
  K point      6 =   0.086207  0.000000  0.000000  Weight =    0.033
--------------------------------------------------------------------------------

  Frequencies (cm-1) [NB: Negative implies an imaginary mode]:

-1621.69-1605.34-1591.43-1585.82-1426.04-1422.09 -852.77 -724.26 -719.84
 -640.63 -635.67  -85.48   65.02   84.31  361.79  580.67  611.13  620.96
  623.66  627.82  697.56  714.21  723.54  784.51  848.47  858.53  890.70


--------------------------------------------------------------------------------
  K point      7 =   0.103448  0.000000  0.000000  Weight =    0.033
--------------------------------------------------------------------------------

  Frequencies (cm-1) [NB: Negative implies an imaginary mode]:

-1621.57-1605.52-1591.17-1583.23-1427.18-1422.28 -852.20 -728.12 -722.47
 -637.37 -629.99 -101.73   77.74  100.95  364.28  577.16  609.84  620.67
  623.27  630.27  697.34  714.68  727.05  785.26  845.98  860.20  891.92


--------------------------------------------------------------------------------
  K point      8 =   0.120690  0.000000  0.000000  Weight =    0.033
--------------------------------------------------------------------------------

  Frequencies (cm-1) [NB: Negative implies an imaginary mode]:

-1621.42-1605.72-1590.88-1580.26-1428.51-1422.48 -851.53 -732.20 -725.27
 -634.05 -623.63 -117.58   90.30  117.44  367.08  573.52  608.37  619.74
  622.89  633.17  697.21  715.36  730.73  786.12  843.30  862.13  893.15


--------------------------------------------------------------------------------
  K point      9 =   0.137931  0.000000  0.000000  Weight =    0.033
--------------------------------------------------------------------------------

  Frequencies (cm-1) [NB: Negative implies an imaginary mode]:

-1621.26-1605.94-1590.56-1576.98-1430.03-1422.70 -850.77 -736.40 -728.16
 -630.78 -616.69 -133.02  102.69  133.75  370.11  569.79  606.70  618.49
  622.48  636.26  697.12  716.28  734.51  787.06  840.49  864.29  894.37


--------------------------------------------------------------------------------
  K point     10 =   0.155172  0.000000  0.000000  Weight =    0.033
--------------------------------------------------------------------------------

  Frequencies (cm-1) [NB: Negative implies an imaginary mode]:

-1621.08-1606.17-1590.22-1573.44-1431.71-1422.94 -849.92 -740.65 -731.13
 -627.61 -609.23 -148.03  114.89  149.81  373.33  566.00  604.82  617.07
  622.03  639.43  697.02  717.47  738.27  788.09  837.62  866.65  895.54


--------------------------------------------------------------------------------
  K point     11 =   0.172414  0.000000  0.000000  Weight =    0.033
--------------------------------------------------------------------------------

  Frequencies (cm-1) [NB: Negative implies an imaginary mode]:

-1620.87-1606.42-1589.85-1569.69-1433.53-1423.19 -848.97 -744.88 -734.15
 -624.62 -601.32 -162.62  126.88  165.57  376.71  562.19  602.66  615.59
  621.56  642.61  696.87  718.93  741.93  789.19  834.76  869.16  896.65


--------------------------------------------------------------------------------
  K point     12 =   0.189655  0.000000  0.000000  Weight =    0.033
--------------------------------------------------------------------------------

  Frequencies (cm-1) [NB: Negative implies an imaginary mode]:

-1620.66-1606.68-1589.47-1565.78-1435.49-1423.46 -847.93 -749.04 -737.20
 -621.82 -593.03 -176.78  138.65  180.98  380.21  558.37  600.20  614.13
  621.06  645.79  696.66  720.67  745.39  790.37  831.96  871.77  897.71


--------------------------------------------------------------------------------
  K point     13 =   0.206897  0.000000  0.000000  Weight =    0.033
--------------------------------------------------------------------------------

  Frequencies (cm-1) [NB: Negative implies an imaginary mode]:

-1620.43-1606.95-1589.08-1561.76-1437.56-1423.74 -846.81 -753.10 -740.27
 -619.24 -584.40 -190.52  150.18  195.95  383.80  554.58  597.40  612.74
  620.56  648.95  696.37  722.63  748.51  791.63  829.31  874.40  898.73


--------------------------------------------------------------------------------
  K point     14 =   0.224138  0.000000  0.000000  Weight =    0.033
--------------------------------------------------------------------------------

  Frequencies (cm-1) [NB: Negative implies an imaginary mode]:

-1620.19-1607.22-1588.68-1557.68-1439.73-1424.03 -845.60 -757.03 -743.36
 -616.90 -575.48 -203.86  161.46  210.40  387.48  550.83  594.25  611.45
  620.05  652.09  696.01  724.79  751.18  793.01  826.87  876.97  899.74


--------------------------------------------------------------------------------
  K point     15 =   0.241379  0.000000  0.000000  Weight =    0.033
--------------------------------------------------------------------------------

  Frequencies (cm-1) [NB: Negative implies an imaginary mode]:

-1619.93-1607.49-1588.28-1553.59-1441.97-1424.32 -844.32 -760.80 -746.46
 -614.80 -566.33 -216.79  172.47  224.25  391.25  547.15  590.76  610.27
  619.55  655.21  695.62  727.08  753.27  794.54  824.71  879.39  900.76


--------------------------------------------------------------------------------
  K point     16 =   0.258621  0.000000  0.000000  Weight =    0.033
--------------------------------------------------------------------------------

  Frequencies (cm-1) [NB: Negative implies an imaginary mode]:

-1619.68-1607.77-1587.88-1549.53-1444.28-1424.62 -842.96 -764.39 -749.55
 -612.93 -557.00 -229.34  183.21  237.39  395.11  543.57  586.95  609.20
  619.06  658.29  695.20  729.46  754.67  796.25  822.89  881.55  901.86


--------------------------------------------------------------------------------
  K point     17 =   0.275862  0.000000  0.000000  Weight =    0.033
--------------------------------------------------------------------------------

  Frequencies (cm-1) [NB: Negative implies an imaginary mode]:

-1619.41-1608.04-1587.48-1545.53-1446.62-1424.93 -841.53 -767.79 -752.63
 -611.28 -547.53 -241.51  193.66  249.72  399.10  540.12  582.83  608.23
  618.58  661.35  694.78  731.85  755.31  798.16  821.47  883.36  903.07


--------------------------------------------------------------------------------
  K point     18 =   0.293103  0.000000  0.000000  Weight =    0.033
--------------------------------------------------------------------------------

  Frequencies (cm-1) [NB: Negative implies an imaginary mode]:

-1619.15-1608.30-1587.09-1541.63-1448.99-1425.23 -840.05 -770.98 -755.68
 -609.85 -537.97 -253.31  203.80  261.12  403.25  536.81  578.43  607.36
  618.13  664.37  694.41  734.20  755.19  800.25  820.46  884.72  904.43


--------------------------------------------------------------------------------
  K point     19 =   0.310345  0.000000  0.000000  Weight =    0.033
--------------------------------------------------------------------------------

  Frequencies (cm-1) [NB: Negative implies an imaginary mode]:

-1618.88-1608.57-1586.71-1537.86-1451.36-1425.53 -838.51 -773.94 -758.69
 -608.62 -528.38 -264.74  213.62  271.48  407.61  533.68  573.78  606.56
  617.70  667.35  694.11  736.41  754.38  802.47  819.88  885.61  905.95


--------------------------------------------------------------------------------
  K point     20 =   0.327586  0.000000  0.000000  Weight =    0.033
--------------------------------------------------------------------------------

  Frequencies (cm-1) [NB: Negative implies an imaginary mode]:

-1618.62-1608.82-1586.36-1534.24-1453.71-1425.82 -836.94 -776.68 -761.64
 -607.56 -518.82 -275.78  223.09  280.66  412.22  530.75  568.90  605.85
  617.31  670.25  693.93  738.35  753.06  804.73  819.74  886.03  907.57


--------------------------------------------------------------------------------
  K point     21 =   0.344828  0.000000  0.000000  Weight =    0.033
--------------------------------------------------------------------------------

  Frequencies (cm-1) [NB: Negative implies an imaginary mode]:

-1618.37-1609.07-1586.02-1530.80-1456.02-1426.09 -835.35 -779.17 -764.51
 -606.67 -509.35 -286.44  232.18  288.58  417.11  528.03  563.84  605.20
  616.94  673.04  693.95  739.77  751.54  806.91  820.03  886.05  909.23


--------------------------------------------------------------------------------
  K point     22 =   0.362069  0.000000  0.000000  Weight =    0.033
--------------------------------------------------------------------------------

  Frequencies (cm-1) [NB: Negative implies an imaginary mode]:

-1618.12-1609.30-1585.70-1527.57-1458.26-1426.36 -833.76 -781.42 -767.27
 -605.93 -500.05 -296.67  240.87  295.16  422.29  525.56  558.63  604.62
  616.60  675.65  694.24  740.17  750.39  808.86  820.78  885.72  910.86


--------------------------------------------------------------------------------
  K point     23 =   0.379310  0.000000  0.000000  Weight =    0.033
--------------------------------------------------------------------------------

  Frequencies (cm-1) [NB: Negative implies an imaginary mode]:

-1617.89-1609.51-1585.42-1524.57-1460.40-1426.60 -832.20 -783.41 -769.89
 -605.31 -491.00 -306.44  249.11  300.35  427.73  523.32  553.35  604.11
  616.31  677.96  694.93  739.07  750.19  810.49  821.95  885.13  912.40


--------------------------------------------------------------------------------
  K point     24 =   0.396552  0.000000  0.000000  Weight =    0.033
--------------------------------------------------------------------------------

  Frequencies (cm-1) [NB: Negative implies an imaginary mode]:

-1617.68-1609.71-1585.16-1521.83-1462.41-1426.81 -830.70 -785.13 -772.33
 -604.81 -482.33 -315.65  256.84  304.18  433.35  521.33  548.08  603.67
  616.05  679.87  696.15  736.65  750.81  811.76  823.47  884.36  913.80


--------------------------------------------------------------------------------
  K point     25 =   0.413793  0.000000  0.000000  Weight =    0.033
--------------------------------------------------------------------------------

  Frequencies (cm-1) [NB: Negative implies an imaginary mode]:

-1617.49-1609.89-1584.94-1519.40-1464.25-1427.00 -829.30 -786.60 -774.54
 -604.41 -474.19 -324.19  264.00  306.71  438.99  519.58  542.95  603.29
  615.82  681.30  697.96  733.49  751.76  812.70  825.17  883.48  915.02


--------------------------------------------------------------------------------
  K point     26 =   0.431034  0.000000  0.000000  Weight =    0.033
--------------------------------------------------------------------------------

  Frequencies (cm-1) [NB: Negative implies an imaginary mode]:

-1617.32-1610.04-1584.76-1517.30-1465.86-1427.17 -828.04 -787.79 -776.48
 -604.10 -466.78 -331.88  270.47  308.08  444.44  518.05  538.15  602.98
  615.64  682.28  700.34  729.94  752.72  813.38  826.86  882.58  916.04


--------------------------------------------------------------------------------
  K point     27 =   0.448276  0.000000  0.000000  Weight =    0.033
--------------------------------------------------------------------------------

  Frequencies (cm-1) [NB: Negative implies an imaginary mode]:

-1617.19-1610.17-1584.61-1515.59-1467.21-1427.29 -826.98 -788.71 -778.08
 -603.87 -460.40 -338.46  276.10  308.48  449.38  516.72  533.93  602.73
  615.50  682.89  703.17  726.22  753.55  813.86  828.39  881.75  916.84


--------------------------------------------------------------------------------
  K point     28 =   0.465517  0.000000  0.000000  Weight =    0.033
--------------------------------------------------------------------------------

  Frequencies (cm-1) [NB: Negative implies an imaginary mode]:

-1617.09-1610.26-1584.51-1514.32-1468.22-1427.39 -826.18 -789.37 -779.28
 -603.71 -455.39 -343.59  280.64  308.21  453.43  515.62  530.61  602.56
  615.39  683.25  706.28  722.51  754.17  814.18  829.59  881.08  917.42


--------------------------------------------------------------------------------
  K point     29 =   0.482759  0.000000  0.000000  Weight =    0.033
--------------------------------------------------------------------------------

  Frequencies (cm-1) [NB: Negative implies an imaginary mode]:

-1617.03-1610.31-1584.44-1513.53-1468.85-1427.44 -825.67 -789.76 -780.03
 -603.61 -452.16 -346.89  283.70  307.69  456.14  514.84  528.49  602.45
  615.33  683.43  709.36  719.07  754.56  814.37  830.36  880.64  917.77


--------------------------------------------------------------------------------
  K point     30 =   0.500000  0.000000  0.000000  Weight =    0.033
--------------------------------------------------------------------------------

  Frequencies (cm-1) [NB: Negative implies an imaginary mode]:

-1617.01-1610.33-1584.42-1513.27-1469.06-1427.46 -825.50 -789.89 -780.29
 -603.58 -451.04 -348.04  284.80  307.43  457.09  514.55  527.77  602.42
  615.31  683.49  711.14  717.18  754.69  814.43  830.62  880.49  917.88


--------------------------------------------------------------------------------
  Phonon properties (per mole of unit cells): Temperature =      0.000 K
--------------------------------------------------------------------------------
  Zero point energy            =        0.580187 eV
--------------------------------------------------------------------------------

  Phonon dispersion curves : 

--------------------------------------------------------------------------------
  Section number =   1
--------------------------------------------------------------------------------
  Frequency (cm-1) Phonon dispersion                                            
--------------------------------------------------------------------------------
   935.61   | *                                                          
   896.63   |                     * * * * * * * * * * * * * * * * * * * *
   857.65   | * * * * * * * * * * * * * * * * * * * * * * * * * * * * * *
   818.66   | * * * * * * * * * * * * * * * * * * * * * * * * * * * * * *
   779.68   | * * * * * * * * * * * * * * * * * * * * * * * * * * * * * *
   740.70   | *                   * * * * * * * * * * * * * * * * * * * *
   701.71   | * * * * * * * * * * * * * * * * * * * * * * * * * * * * * *
   662.73   | * * * * * * * * * * * * * * * * * * * * * * * * * * * * * *
   623.74   | * * * * * * * * * * * * * * * * *                          
   584.76   | * * * * * * * * * * * * * * * * * * * * * * * * * * * * * *
   545.78   |         * * * * * * * * * * *   * * * * * * * *            
   506.79   |                               * * * * * * * * * * * * * * *
   467.81   |                                                            
   428.82   |                                               * * * * * * *
   389.84   |                             * * * * * * * * *              
   350.86   | * * * * * * * * * * * * * *                                
   311.87   |                                                            
   272.89   |                                       * * * * * * * * * * *
   233.90   |                               * * * *     * * * * *        
   194.92   |                         * * *     * * * *                  
   155.94   |                     * *   * * * *                          
   116.95   |               * * * * * *                                  
    77.97   |           * * * * *                                        
    38.98   |       * * * *                                              
     0.00   | * * *                                                      
--------------------------------------------------------------------------------

  XYZ File written as gulp.xyz                                


  Time to end of properties =       0.1080 seconds


  Peak dynamic memory used =       0.51 MB 


  Timing analysis for GULP :

--------------------------------------------------------------------------------
  Task / Subroutine                                          Time (Seconds)
--------------------------------------------------------------------------------
  Calculation of real space energy and derivatives                0.0760
  Calculation of phonons                                          0.0800
  Calculation of scattering                                       0.0000
  Disk read/write operations to scratch files                     0.0040
--------------------------------------------------------------------------------
  Total CPU time                                                  0.1080
--------------------------------------------------------------------------------



  **** GULP has completed with   3 warnings - beware! ****

  Job Finished at 09:38.47 15th April      2013                               

