********************************************************************************
*                       GENERAL UTILITY LATTICE PROGRAM                        *
*                                 Julian Gale                                  *
*                      Nanochemistry Research Institute                        *
*                           Department of Chemistry                            *
*                    Curtin University, Western Australia                      *
********************************************************************************
* Version = 4.0.7 * Last modified =  14th December 2012                        *
********************************************************************************
*  optimise     - perform optimisation run                                     *
*  phonon       - calculate phonons for final geometry                         *
********************************************************************************

  Job Started  at 16:06.31  2nd May        2013                               

  Number of CPUs =     1


  Total number of configurations input =   1

********************************************************************************
*  Input for Configuration =   1                                               *
********************************************************************************

  Formula = Si3O6                                                       

  Number of irreducible atoms/shells =       9


  Total number atoms/shells =       9

  Dimensionality = 3               :  Bulk   



  Cartesian lattice vectors (Angstroms) :

        4.916000    0.000000    0.000000
       -2.458000    4.257381    0.000000
        0.000000    0.000000    5.405400

  Cell parameters (Angstroms/Degrees):

  a =       4.9160    alpha =  90.0000
  b =       4.9160    beta  =  90.0000
  c =       5.4054    gamma = 120.0000

  Initial cell volume =         113.131154 Angs**3

  Temperature of configuration =  0.000     K 

  Pressure of configuration =         0.000 GPa 

  Fractional coordinates of asymmetric unit :

--------------------------------------------------------------------------------
   No.  Atomic       x           y          z         Charge      Occupancy
        Label      (Frac)      (Frac)     (Frac)        (e)         (Frac)  
--------------------------------------------------------------------------------
      1 Si    c    0.469900    0.000000    0.000000     2.40000    1.000000    
      2 Si    c    0.000000 *  0.469900 *  0.666667 *   2.40000    1.000000    
      3 Si    c    0.530100 *  0.530100 *  0.333333 *   2.40000    1.000000    
      4 O     c    0.414100 *  0.268100 *  0.118800 *  -1.20000    1.000000    
      5 O     c    0.267200 *  0.413300 *  0.547900 *  -1.20000    1.000000    
      6 O     c    0.732800 *  0.146100 *  0.785500 *  -1.20000    1.000000    
      7 O     c    0.586700 *  0.853900 *  0.214600 *  -1.20000    1.000000    
      8 O     c    0.853900 *  0.586700 *  0.452100 *  -1.20000    1.000000    
      9 O     c    0.146000 *  0.731900 *  0.881200 *  -1.20000    1.000000    
--------------------------------------------------------------------------------


  Brillouin zone sampling points :

--------------------------------------------------------------------------------
  Point number          x          y          z            Weight
--------------------------------------------------------------------------------
        1           0.000000   0.000000   0.000000         0.0333
        2           0.017241   0.000000   0.000000         0.0333
        3           0.034483   0.000000   0.000000         0.0333
        4           0.051724   0.000000   0.000000         0.0333
        5           0.068966   0.000000   0.000000         0.0333
        6           0.086207   0.000000   0.000000         0.0333
        7           0.103448   0.000000   0.000000         0.0333
        8           0.120690   0.000000   0.000000         0.0333
        9           0.137931   0.000000   0.000000         0.0333
       10           0.155172   0.000000   0.000000         0.0333
       11           0.172414   0.000000   0.000000         0.0333
       12           0.189655   0.000000   0.000000         0.0333
       13           0.206897   0.000000   0.000000         0.0333
       14           0.224138   0.000000   0.000000         0.0333
       15           0.241379   0.000000   0.000000         0.0333
       16           0.258621   0.000000   0.000000         0.0333
       17           0.275862   0.000000   0.000000         0.0333
       18           0.293103   0.000000   0.000000         0.0333
       19           0.310345   0.000000   0.000000         0.0333
       20           0.327586   0.000000   0.000000         0.0333
       21           0.344828   0.000000   0.000000         0.0333
       22           0.362069   0.000000   0.000000         0.0333
       23           0.379310   0.000000   0.000000         0.0333
       24           0.396552   0.000000   0.000000         0.0333
       25           0.413793   0.000000   0.000000         0.0333
       26           0.431034   0.000000   0.000000         0.0333
       27           0.448276   0.000000   0.000000         0.0333
       28           0.465517   0.000000   0.000000         0.0333
       29           0.482759   0.000000   0.000000         0.0333
       30           0.500000   0.000000   0.000000         0.0333
--------------------------------------------------------------------------------


********************************************************************************
*  General input information                                                   *
********************************************************************************

  Species output for all configurations : 

--------------------------------------------------------------------------------
  Species    Type    Atomic    Atomic    Charge       Radii (Angs)     Library
                     Number     Mass       (e)     Cova   Ionic  VDW   Symbol
--------------------------------------------------------------------------------
    Si       Core       14      28.09   2.400000   1.200  0.000  2.100          
    O        Core        8      16.00  -1.200000   0.730  0.000  1.360          
--------------------------------------------------------------------------------


  Lattice summation method = Wolf et al

  Modified method - smoothed energy only / correct forces

  Eta    =     0.223000 Angstrom**-1
  Cutoff =    10.000000 Angstrom

  Time limit = Infinity

  Maximum range for interatomic potentials =    100000.000000 Angstroms

  General interatomic potentials :

--------------------------------------------------------------------------------
Atom  Types   Potential         A         B         C         D     Cutoffs(Ang)
  1     2                                                            Min    Max 
--------------------------------------------------------------------------------
O    c Si   c Buckingham    0.188E+05 0.205      134.      0.00     0.000 10.000
O    c O    c Buckingham    0.134E+04 0.362      175.      0.00     0.000 10.000
--------------------------------------------------------------------------------

********************************************************************************
*  Output for configuration   1                                                *
********************************************************************************


  Components of energy : 

--------------------------------------------------------------------------------
  Interatomic potentials     =          -0.86394793 eV
  Monopole - monopole (real) =        -123.96427315 eV
  Monopole - monopole (recip)=           0.00000000 eV
  Monopole - monopole (total)=        -123.96427315 eV
  Wolf sum self energy       =         -46.98922585 eV
--------------------------------------------------------------------------------
  Total lattice energy       =        -171.81744692 eV
--------------------------------------------------------------------------------
  Total lattice energy       =          -16577.7572 kJ/(mole unit cells)
--------------------------------------------------------------------------------


  Number of variables =       30

  Maximum number of calculations  =          1000
  Maximum Hessian update interval =            10
  Maximum step size               =   1.000000000
  Maximum parameter tolerance     =   0.000010000
  Maximum function  tolerance     =   0.000010000
  Maximum gradient  tolerance     =   0.001000000
  Maximum gradient  component     =   0.010000000

  Symmetry not applied to optimisation

  Cell parameters to be optimised using strains

  Newton-Raphson optimiser to be used

  BFGS hessian update to be used

  Start of bulk optimisation :

  Cycle:      0 Energy:      -171.817447  Gnorm:      0.443090  CPU:    0.020
  ** Hessian calculated **
  Cycle:      1 Energy:      -172.082122  Gnorm:      0.037215  CPU:    0.024
  Cycle:      2 Energy:      -172.087166  Gnorm:      0.031713  CPU:    0.032
  ** Hessian calculated **
  Cycle:      3 Energy:      -172.088086  Gnorm:      0.028778  CPU:    0.040
  Cycle:      4 Energy:      -172.088087  Gnorm:      0.028777  CPU:    0.048
  Cycle:      5 Energy:      -172.088110  Gnorm:      0.028733  CPU:    0.056
  Cycle:      6 Energy:      -172.088140  Gnorm:      0.028672  CPU:    0.064
  Cycle:      7 Energy:      -172.088140  Gnorm:      0.028672  CPU:    0.072
  ** Hessian calculated **
  Cycle:      8 Energy:      -172.088327  Gnorm:      0.025925  CPU:    0.080
  Cycle:      9 Energy:      -172.088436  Gnorm:      0.025587  CPU:    0.088
  Cycle:     10 Energy:      -172.088436  Gnorm:      0.025587  CPU:    0.092
  ** Hessian calculated **
  Cycle:     11 Energy:      -172.088479  Gnorm:      0.025010  CPU:    0.100
  Cycle:     12 Energy:      -172.088653  Gnorm:      0.025054  CPU:    0.108
  Cycle:     13 Energy:      -172.088703  Gnorm:      0.024838  CPU:    0.116
  Cycle:     14 Energy:      -172.088703  Gnorm:      0.024838  CPU:    0.120
  ** Hessian calculated **
  Cycle:     15 Energy:      -172.089705  Gnorm:      0.016704  CPU:    0.128
  Cycle:     16 Energy:      -172.089814  Gnorm:      0.016269  CPU:    0.136
  Cycle:     17 Energy:      -172.089814  Gnorm:      0.016269  CPU:    0.140
  ** Hessian calculated **
  Cycle:     18 Energy:      -172.089814  Gnorm:      0.016269  CPU:    0.152
  ** Hessian calculated **

  XYZ File written as gulp.xyz                                



  **** Conditions for a minimum have not been satisfied. However ****
  **** no lower point can be found - treat results with caution  ****
  **** unless gradient norm is small (less than 0.1)             ****


  Final energy =    -172.08981439 eV
  Final Gnorm  =       0.01626916

  Components of energy : 

--------------------------------------------------------------------------------
  Interatomic potentials     =          -2.56184341 eV
  Monopole - monopole (real) =        -122.53874514 eV
  Monopole - monopole (recip)=           0.00000000 eV
  Monopole - monopole (total)=        -122.53874514 eV
  Wolf sum self energy       =         -46.98922585 eV
--------------------------------------------------------------------------------
  Total lattice energy       =        -172.08981439 eV
--------------------------------------------------------------------------------
  Total lattice energy       =          -16604.0365 kJ/(mole unit cells)
--------------------------------------------------------------------------------

  Final fractional coordinates of atoms :

--------------------------------------------------------------------------------
   No.  Atomic        x           y          z          Radius
        Label       (Frac)      (Frac)     (Frac)       (Angs) 
--------------------------------------------------------------------------------
     1  Si    c     0.469900    0.000000    0.000000    0.000000
     2  Si    c     0.008899    0.461033    0.666700    0.000000
     3  Si    c     0.547873    0.538973    0.333202    0.000000
     4  O     c     0.434515    0.277099    0.120479    0.000000
     5  O     c     0.285875    0.425507    0.545972    0.000000
     6  O     c     0.731873    0.148492    0.787236    0.000000
     7  O     c     0.583382    0.851504    0.212737    0.000000
     8  O     c     0.860387    0.574485    0.453929    0.000000
     9  O     c     0.157398    0.722865    0.879457    0.000000
--------------------------------------------------------------------------------

  Final Cartesian lattice vectors (Angstroms) :

        4.998279   -0.000459    0.000008
       -2.499537    4.330270    0.000483
        0.000009    0.000618    5.492347


  Final cell parameters and derivatives :

--------------------------------------------------------------------------------
       a            4.998279 Angstrom     dE/de1(xx)    -0.196399 eV/strain
       b            4.999892 Angstrom     dE/de2(yy)    -0.176836 eV/strain
       c            5.492347 Angstrom     dE/de3(zz)    -0.086451 eV/strain
       alpha       89.988930 Degrees      dE/de4(yz)     0.022363 eV/strain
       beta        89.999812 Degrees      dE/de5(xz)     0.003059 eV/strain
       gamma      119.999840 Degrees      dE/de6(xy)    -0.005665 eV/strain
--------------------------------------------------------------------------------

  Primitive cell volume =           118.869490 Angs**3

  Density of cell =      2.518309 g/cm**3

  Non-primitive cell volume =           118.869490 Angs**3


  Final internal derivatives :

--------------------------------------------------------------------------------
   No.  Atomic          a             b             c           Radius
        Label          (eV)          (eV)          (eV)        (eV/Angs)
--------------------------------------------------------------------------------
      1 Si    c       0.000000      0.000000      0.000000      0.000000
      2 Si    c       0.115679     -0.250482      0.034968      0.000000
      3 Si    c       0.111878      0.139903     -0.040441      0.000000
      4 O     c      -0.052165     -0.017986     -0.029993      0.000000
      5 O     c      -0.036871     -0.048364      0.018594      0.000000
      6 O     c       0.089352     -0.047330     -0.034228      0.000000
      7 O     c       0.092633     -0.048567      0.048037      0.000000
      8 O     c      -0.035483      0.085087     -0.022666      0.000000
      9 O     c      -0.052337      0.066309      0.022532      0.000000
--------------------------------------------------------------------------------
  Maximum abs         0.115679      0.250482      0.048037      0.000000
--------------------------------------------------------------------------------


  Born effective charge tensors : 

-------------------------------------------------------------------------------
  Atom             x           y             z
-------------------------------------------------------------------------------
   1 Si    x       2.4000      0.0000      0.0000
           y       0.0000      2.4000      0.0000
           z       0.0000      0.0000      2.4000
-------------------------------------------------------------------------------
   2 Si    x       2.4000      0.0000      0.0000
           y       0.0000      2.4000      0.0000
           z       0.0000      0.0000      2.4000
-------------------------------------------------------------------------------
   3 Si    x       2.4000      0.0000      0.0000
           y       0.0000      2.4000      0.0000
           z       0.0000      0.0000      2.4000
-------------------------------------------------------------------------------
   4 O     x      -1.2000      0.0000      0.0000
           y       0.0000     -1.2000      0.0000
           z       0.0000      0.0000     -1.2000
-------------------------------------------------------------------------------
   5 O     x      -1.2000      0.0000      0.0000
           y       0.0000     -1.2000      0.0000
           z       0.0000      0.0000     -1.2000
-------------------------------------------------------------------------------
   6 O     x      -1.2000      0.0000      0.0000
           y       0.0000     -1.2000      0.0000
           z       0.0000      0.0000     -1.2000
-------------------------------------------------------------------------------
   7 O     x      -1.2000      0.0000      0.0000
           y       0.0000     -1.2000      0.0000
           z       0.0000      0.0000     -1.2000
-------------------------------------------------------------------------------
   8 O     x      -1.2000      0.0000      0.0000
           y       0.0000     -1.2000      0.0000
           z       0.0000      0.0000     -1.2000
-------------------------------------------------------------------------------
   9 O     x      -1.2000      0.0000      0.0000
           y       0.0000     -1.2000      0.0000
           z       0.0000      0.0000     -1.2000
-------------------------------------------------------------------------------




  Elastic Constant Matrix: (Units=GPa)

-------------------------------------------------------------------------------
  Indices      1         2         3         4         5         6    
-------------------------------------------------------------------------------
       1     78.9177   12.6110   13.7917   16.4774    0.0036   -0.0293
       2     12.6110   78.9358   13.7839  -16.3078    0.0061   -0.0212
       3     13.7917   13.7839   98.1494    0.1005   -0.0065   -0.0089
       4     16.4774  -16.3078    0.1005   37.9820   -0.0076   -0.0030
       5      0.0036    0.0061   -0.0065   -0.0076   37.9049   16.4327
       6     -0.0293   -0.0212   -0.0089   -0.0030   16.4327   33.0762
-------------------------------------------------------------------------------


  Elastic Compliance Matrix: (Units=1/GPa)

-------------------------------------------------------------------------------
  Indices      1         2         3         4         5         6    
-------------------------------------------------------------------------------
       1    0.015304 -0.003881 -0.001597 -0.008301 -0.000009  0.000014
       2   -0.003881  0.015273 -0.001608  0.008245 -0.000005  0.000009
       3   -0.001597 -0.001608  0.010639 -0.000026  0.000003 -0.000001
       4   -0.008301  0.008245 -0.000026  0.033470  0.000007 -0.000003
       5   -0.000009 -0.000005  0.000003  0.000007  0.033624 -0.016705
       6    0.000014  0.000009 -0.000001 -0.000003 -0.016705  0.038532
-------------------------------------------------------------------------------

  Mechanical properties :

-------------------------------------------------------------------------------
  Convention :                    Reuss         Voigt         Hill
-------------------------------------------------------------------------------
  Bulk  Modulus (GPa)     =      36.97740      37.37512      37.17626
  Shear Modulus (GPa)     =      29.40690      36.18037      32.79364
-------------------------------------------------------------------------------
  Velocity S-wave (km/s)  =       3.41720       3.79037       3.60861
  Velocity P-wave (km/s)  =       5.50028       5.83072       5.66791
-------------------------------------------------------------------------------
  Compressibility (1/GPa) =    0.02704355
-------------------------------------------------------------------------------
  Stress axis :                     x             y             z
-------------------------------------------------------------------------------
  Youngs Moduli (GPa)     =      65.34257      65.47563      93.99567
-------------------------------------------------------------------------------
  Poissons Ratio (x)      =                     0.25412       0.15010
  Poissons Ratio (y)      =       0.25360                     0.15114
  Poissons Ratio (z)      =       0.10435       0.10528
-------------------------------------------------------------------------------


  Piezoelectric Strain Matrix: (Units=C/m**2)

-------------------------------------------------------------------------------
  Indices      1         2         3         4         5         6    
-------------------------------------------------------------------------------
       x     2.02096  -2.01691   0.00406   0.16743   0.00090  -0.00158
       y    -0.00049  -0.00368  -0.00160  -0.00065  -0.17060  -2.01197
       z     0.00038  -0.00019   0.00028  -0.00095   0.00801  -0.00232
-------------------------------------------------------------------------------


  Piezoelectric Stress Matrix: (Units=10**-11 C/N)

-------------------------------------------------------------------------------
  Indices      1         2         3         4         5         6    
-------------------------------------------------------------------------------
       x     3.73602  -3.72737   0.00548  -2.78034   0.00490  -0.00654
       y    -0.00125  -0.00743  -0.00090  -0.00439   2.78732  -7.46761
       z     0.00140  -0.00128   0.00027  -0.00366   0.03080  -0.02232
-------------------------------------------------------------------------------


  Static dielectric constant tensor : 

-------------------------------------------------------------------------------
              x         y         z
-------------------------------------------------------------------------------
       x     1.97589   0.00018   0.00005
       y     0.00018   1.97479  -0.00014
       z     0.00005  -0.00014   2.03094
--------------------------------------------------------------------------------

  Static refractive indices : 

-------------------------------------------------------------------------------
    1 =    1.40526      2 =    1.40567      3 =    1.42511
-------------------------------------------------------------------------------


  Phonon Calculation : 

  K direction for n-a correction at gamma =  1.00000  1.00000  1.00000

  Number of k points for this configuration =       30

--------------------------------------------------------------------------------
  K point      1 =   0.000000  0.000000  0.000000  Weight =    0.033
--------------------------------------------------------------------------------

  Frequencies (cm-1) [NB: Negative implies an imaginary mode]:

   -0.00   -0.00    0.00  162.03  162.86  250.02  301.22  301.28  409.23
  441.77  447.82  461.93  561.54  595.69  632.69  672.55  723.72  723.89
  776.68  777.58  842.69 1137.92 1148.07 1157.76 1221.35 1231.42 1264.33


--------------------------------------------------------------------------------
  K point      2 =   0.017241  0.000000  0.000000  Weight =    0.033
--------------------------------------------------------------------------------

  Frequencies (cm-1) [NB: Negative implies an imaginary mode]:

    4.70    4.87    7.71  162.00  162.23  249.76  301.14  301.54  408.40
  439.91  442.65  449.65  561.33  595.47  595.98  632.66  723.25  723.85
  774.20  777.84  780.48 1137.92 1147.98 1148.20 1157.75 1231.38 1231.42


--------------------------------------------------------------------------------
  K point      3 =   0.034483  0.000000  0.000000  Weight =    0.033
--------------------------------------------------------------------------------

  Frequencies (cm-1) [NB: Negative implies an imaginary mode]:

    9.26    9.88   15.38  161.96  162.63  249.02  300.84  302.59  406.18
  436.55  445.29  452.92  560.75  594.82  597.27  632.56  721.89  723.81
  771.79  778.86  784.12 1137.94 1148.04 1148.88 1157.71 1231.34 1231.39


--------------------------------------------------------------------------------
  K point      4 =   0.051724  0.000000  0.000000  Weight =    0.033
--------------------------------------------------------------------------------

  Frequencies (cm-1) [NB: Negative implies an imaginary mode]:

   13.65   15.05   22.97  161.88  163.33  247.85  300.35  304.26  403.02
  432.93  449.09  456.40  559.84  593.72  599.31  632.41  719.83  723.72
  769.88  780.43  788.06 1137.97 1148.04 1150.10 1157.65 1231.24 1231.37


--------------------------------------------------------------------------------
  K point      5 =   0.068966  0.000000  0.000000  Weight =    0.033
--------------------------------------------------------------------------------

  Frequencies (cm-1) [NB: Negative implies an imaginary mode]:

   17.89   20.35   30.43  161.77  164.31  246.38  299.69  306.45  399.32
  429.29  453.62  459.88  558.67  592.16  601.92  632.22  717.31  723.60
  768.49  782.42  792.19 1138.02 1148.03 1151.78 1157.56 1231.11 1231.35


--------------------------------------------------------------------------------
  K point      6 =   0.086207  0.000000  0.000000  Weight =    0.033
--------------------------------------------------------------------------------

  Frequencies (cm-1) [NB: Negative implies an imaginary mode]:

   21.95   25.80   37.75  161.63  165.59  244.69  298.87  309.06  395.32
  425.69  458.56  463.29  557.32  590.13  604.91  632.00  714.59  723.43
  767.63  784.72  796.44 1138.10 1148.01 1153.89 1157.44 1230.95 1231.32


--------------------------------------------------------------------------------
  K point      7 =   0.103448  0.000000  0.000000  Weight =    0.033
--------------------------------------------------------------------------------

  Frequencies (cm-1) [NB: Negative implies an imaginary mode]:

   25.82   31.37   44.90  161.45  167.18  242.88  297.92  311.98  391.13
  422.20  463.72  466.59  555.84  587.62  608.04  631.77  711.91  723.24
  767.28  787.21  800.73 1138.21 1147.99 1156.39 1157.31 1230.75 1231.30


--------------------------------------------------------------------------------
  K point      8 =   0.120690  0.000000  0.000000  Weight =    0.033
--------------------------------------------------------------------------------

  Frequencies (cm-1) [NB: Negative implies an imaginary mode]:

   29.49   37.04   51.86  161.24  169.09  241.02  296.87  315.13  386.84
  418.86  468.95  469.80  554.27  584.65  611.07  631.54  709.52  723.06
  767.40  789.82  805.00 1138.33 1147.97 1157.13 1159.29 1230.53 1231.29


--------------------------------------------------------------------------------
  K point      9 =   0.137931  0.000000  0.000000  Weight =    0.033
--------------------------------------------------------------------------------

  Frequencies (cm-1) [NB: Negative implies an imaginary mode]:

   32.95   42.81   58.63  160.99  171.30  239.19  295.75  318.40  382.49
  415.70  472.81  474.21  552.65  581.22  613.73  631.34  707.62  722.96
  767.96  792.51  809.19 1138.49 1147.95 1156.95 1162.47 1230.29 1231.29


--------------------------------------------------------------------------------
  K point     10 =   0.155172  0.000000  0.000000  Weight =    0.033
--------------------------------------------------------------------------------

  Frequencies (cm-1) [NB: Negative implies an imaginary mode]:

   36.19   48.62   65.22  160.71  173.80  237.44  294.59  321.69  378.15
  412.74  475.74  479.27  551.02  577.38  615.76  631.18  706.34  723.01
  768.87  795.24  813.28 1138.66 1147.93 1156.75 1165.92 1230.02 1231.32


--------------------------------------------------------------------------------
  K point     11 =   0.172414  0.000000  0.000000  Weight =    0.033
--------------------------------------------------------------------------------

  Frequencies (cm-1) [NB: Negative implies an imaginary mode]:

   39.18   54.46   71.66  160.37  176.56  235.81  293.44  324.87  373.87
  410.04  478.54  484.10  549.42  573.18  616.95  631.07  705.77  723.33
  770.07  797.97  817.21 1138.85 1147.91 1156.53 1169.58 1229.74 1231.38


--------------------------------------------------------------------------------
  K point     12 =   0.189655  0.000000  0.000000  Weight =    0.033
--------------------------------------------------------------------------------

  Frequencies (cm-1) [NB: Negative implies an imaginary mode]:

   41.92   60.28   77.96  159.99  179.50  234.37  292.34  327.79  369.78
  407.63  481.19  488.56  547.87  568.73  617.18  631.03  705.83  724.04
  771.48  800.70  820.98 1139.06 1147.90 1156.29 1173.39 1229.45 1231.48


--------------------------------------------------------------------------------
  K point     13 =   0.206897  0.000000  0.000000  Weight =    0.033
--------------------------------------------------------------------------------

  Frequencies (cm-1) [NB: Negative implies an imaginary mode]:

   44.40   66.03   84.17  159.54  182.52  233.19  291.34  330.21  366.02
  405.57  483.71  492.49  546.43  564.15  616.44  631.02  706.37  725.28
  773.02  803.39  824.57 1139.29 1147.89 1156.03 1177.28 1229.15 1231.64


--------------------------------------------------------------------------------
  K point     14 =   0.224138  0.000000  0.000000  Weight =    0.033
--------------------------------------------------------------------------------

  Frequencies (cm-1) [NB: Negative implies an imaginary mode]:

   46.64   71.68   90.32  159.05  185.46  232.34  290.47  331.87  362.82
  403.92  486.10  495.66  545.18  559.64  614.80  631.05  707.14  727.18
  774.62  806.04  827.96 1139.52 1147.90 1155.75 1181.19 1228.84 1231.86


--------------------------------------------------------------------------------
  K point     15 =   0.241379  0.000000  0.000000  Weight =    0.033
--------------------------------------------------------------------------------

  Frequencies (cm-1) [NB: Negative implies an imaginary mode]:

   48.63   77.20   96.45  158.49  188.15  231.93  289.78  332.49  360.41
  402.75  488.35  497.78  544.24  555.40  612.41  631.08  707.94  729.77
  776.23  808.62  831.17 1139.77 1147.91 1155.47 1185.05 1228.53 1232.17


--------------------------------------------------------------------------------
  K point     16 =   0.258621  0.000000  0.000000  Weight =    0.033
--------------------------------------------------------------------------------

  Frequencies (cm-1) [NB: Negative implies an imaginary mode]:

   50.40   82.55  102.56  157.87  190.40  232.04  289.29  331.94  358.88
  402.13  490.43  498.53  543.77  551.65  609.42  631.10  708.63  732.98
  777.79  811.10  834.19 1140.02 1147.94 1155.16 1188.79 1228.21 1232.56


--------------------------------------------------------------------------------
  K point     17 =   0.275862  0.000000  0.000000  Weight =    0.033
--------------------------------------------------------------------------------

  Frequencies (cm-1) [NB: Negative implies an imaginary mode]:

   51.95   87.72  108.67  157.19  192.03  232.73  288.98  330.44  358.07
  402.12  492.19  497.78  543.98  548.53  605.98  631.12  709.19  736.66
  779.26  813.47  837.04 1140.27 1147.98 1154.85 1192.36 1227.89 1233.06


--------------------------------------------------------------------------------
  K point     18 =   0.293103  0.000000  0.000000  Weight =    0.033
--------------------------------------------------------------------------------

  Frequencies (cm-1) [NB: Negative implies an imaginary mode]:

   53.32   92.71  114.74  156.45  192.97  233.95  288.77  328.48  357.64
  402.73  492.43  496.66  544.86  546.13  602.21  631.11  709.64  740.64
  780.61  815.68  839.72 1140.53 1148.03 1154.53 1195.70 1227.56 1233.65


--------------------------------------------------------------------------------
  K point     19 =   0.310345  0.000000  0.000000  Weight =    0.033
--------------------------------------------------------------------------------

  Frequencies (cm-1) [NB: Negative implies an imaginary mode]:

   54.52   97.51  120.74  155.64  193.24  235.57  288.49  326.68  357.29
  403.90  488.96  497.59  544.01  546.69  598.25  631.09  709.99  744.75
  781.82  817.71  842.24 1140.77 1148.11 1154.20 1198.78 1227.23 1234.34


--------------------------------------------------------------------------------
  K point     20 =   0.327586  0.000000  0.000000  Weight =    0.033
--------------------------------------------------------------------------------

  Frequencies (cm-1) [NB: Negative implies an imaginary mode]:

   55.58  102.14  126.63  154.77  192.95  237.43  287.85  325.63  356.85
  405.54  483.41  499.29  542.49  548.78  594.20  631.04  710.29  748.86
  782.88  819.53  844.61 1141.02 1148.20 1153.86 1201.57 1226.90 1235.12


--------------------------------------------------------------------------------
  K point     21 =   0.344828  0.000000  0.000000  Weight =    0.033
--------------------------------------------------------------------------------

  Frequencies (cm-1) [NB: Negative implies an imaginary mode]:

   56.51  106.60  132.32  153.82  192.26  239.35  286.54  325.83  356.32
  407.48  476.80  501.14  541.23  551.16  590.16  630.97  710.55  752.86
  783.78  821.12  846.83 1141.24 1148.31 1153.51 1204.06 1226.57 1235.97


--------------------------------------------------------------------------------
  K point     22 =   0.362069  0.000000  0.000000  Weight =    0.033
--------------------------------------------------------------------------------

  Frequencies (cm-1) [NB: Negative implies an imaginary mode]:

   57.33  110.88  137.73  152.80  191.31  241.21  284.39  327.48  355.77
  409.53  469.56  503.04  540.14  553.58  586.23  630.87  710.77  756.68
  784.53  822.47  848.89 1141.46 1148.45 1153.16 1206.25 1226.23 1236.85


--------------------------------------------------------------------------------
  K point     23 =   0.379310  0.000000  0.000000  Weight =    0.033
--------------------------------------------------------------------------------

  Frequencies (cm-1) [NB: Negative implies an imaginary mode]:

   58.05  115.00  142.74  151.71  190.28  242.96  281.47  330.43  355.39
  411.47  461.99  504.99  539.15  555.87  582.55  630.75  710.98  760.23
  785.13  823.58  850.77 1141.66 1148.61 1152.81 1208.15 1225.89 1237.73


--------------------------------------------------------------------------------
  K point     24 =   0.396552  0.000000  0.000000  Weight =    0.033
--------------------------------------------------------------------------------

  Frequencies (cm-1) [NB: Negative implies an imaginary mode]:

   58.67  118.96  147.11  150.67  189.29  244.61  278.00  334.21  355.46
  413.05  454.40  506.97  538.19  557.87  579.25  630.61  711.16  763.47
  785.60  824.46  852.47 1141.83 1148.79 1152.46 1209.79 1225.56 1238.58


--------------------------------------------------------------------------------
  K point     25 =   0.413793  0.000000  0.000000  Weight =    0.033
--------------------------------------------------------------------------------

  Frequencies (cm-1) [NB: Negative implies an imaginary mode]:

   59.20  122.74  148.50  151.86  188.47  246.22  274.21  338.04  356.53
  413.91  447.19  508.96  537.21  559.44  576.50  630.47  711.32  766.35
  785.93  825.13  853.96 1141.99 1148.99 1152.11 1211.16 1225.23 1239.35


--------------------------------------------------------------------------------
  K point     26 =   0.431034  0.000000  0.000000  Weight =    0.033
--------------------------------------------------------------------------------

  Frequencies (cm-1) [NB: Negative implies an imaginary mode]:

   59.64  126.34  147.15  154.92  187.89  247.84  270.32  340.98  359.23
  413.52  440.98  510.92  536.19  560.42  574.48  630.33  711.45  768.81
  786.15  825.62  855.21 1142.11 1149.21 1151.76 1212.29 1224.93 1240.02


--------------------------------------------------------------------------------
  K point     27 =   0.448276  0.000000  0.000000  Weight =    0.033
--------------------------------------------------------------------------------

  Frequencies (cm-1) [NB: Negative implies an imaginary mode]:

   59.98  129.74  145.41  157.39  187.60  249.58  266.51  342.62  363.71
  411.30  436.49  512.75  535.15  560.78  573.26  630.20  711.56  770.80
  786.27  825.96  856.21 1142.21 1149.45 1151.43 1213.19 1224.66 1240.57


--------------------------------------------------------------------------------
  K point     28 =   0.465517  0.000000  0.000000  Weight =    0.033
--------------------------------------------------------------------------------

  Frequencies (cm-1) [NB: Negative implies an imaginary mode]:

   60.23  132.94  143.41  159.10  187.52  251.50  262.93  343.32  369.14
  407.33  433.97  514.32  534.19  560.70  572.70  630.10  711.64  772.28
  786.33  826.18  856.94 1142.29 1149.70 1151.11 1213.84 1224.45 1240.97


--------------------------------------------------------------------------------
  K point     29 =   0.482759  0.000000  0.000000  Weight =    0.033
--------------------------------------------------------------------------------

  Frequencies (cm-1) [NB: Negative implies an imaginary mode]:

   60.38  135.92  141.17  160.09  187.55  253.62  259.74  343.57  374.11
  403.02  432.88  515.42  533.47  560.49  572.53  630.03  711.69  773.19
  786.35  826.30  857.38 1142.33 1149.93 1150.84 1214.24 1224.31 1241.21


--------------------------------------------------------------------------------
  K point     30 =   0.500000  0.000000  0.000000  Weight =    0.033
--------------------------------------------------------------------------------

  Frequencies (cm-1) [NB: Negative implies an imaginary mode]:

   60.43  138.57  138.76  160.41  187.58  255.22  257.76  343.62  376.34
  400.96  432.59  515.82  533.20  560.39  572.50  630.01  711.70  773.50
  786.35  826.34  857.53 1142.34 1150.05 1150.71 1214.37 1224.26 1241.30


--------------------------------------------------------------------------------
  Phonon properties (per mole of unit cells): Temperature =      0.000 K
--------------------------------------------------------------------------------
  Zero point energy            =        1.019604 eV
--------------------------------------------------------------------------------

  Phonon dispersion curves : 

--------------------------------------------------------------------------------
  Section number =   1
--------------------------------------------------------------------------------
  Frequency (cm-1) Phonon dispersion                                            
--------------------------------------------------------------------------------
  1223.35   | * * * * * * * * * * * * * * * * * * * * * * * * * * * * * *
  1172.38   | *                     * * * * * * * * * * * * * * * * * * *
  1121.41   | * * * * * * * * * * * * * * * * * * * * * * * * * * * * * *
  1070.43   |                                                            
  1019.46   |                                                            
   968.49   |                                                            
   917.52   |                                                            
   866.54   |                                                            
   815.57   | *                   * * * * * * * * * * * * * * * * * * * *
   764.60   | * * * * * * * * * * * * * * * * * * * * * * * * * * * * * *
   713.62   | * * * * * * * * * * * * * * * * * * * * * * * *            
   662.65   | *           * * * * * * * * * * * * * * * * * * * * * * * *
   611.68   | * * * * * * * * * * * * * * * * * * * * * * * * * * * * * *
   560.70   | * * * * * * * * * * * * *     * * * * * * * * * * * * * * *
   509.73   |       * * * * * * * * * * * * * * * * * * * * * * * * * * *
   458.76   | *       * * * * * * * * * * * * * * * * * * * * *          
   407.78   | * * * * * * * * * * *                     * * * * * * * * *
   356.81   |     * * * * * * * * * * * * * * * * * * *         * * * * *
   305.84   |         * * * * * * * * * * * * * * * * * * * * * * * * * *
   254.87   | * * * * * * * * * * * * * * * * * * * * * * * * * * * * * *
   203.89   | * * * * * * * * * * * * * * * * * * * * * * * * * * * * *  
   152.92   | * * * * * * * * * * * * * * * * * * * * * * * * * * * * * *
   101.95   |                               * * * * * * * * * * * * * * *
    50.97   |               * * * * * * * * * * * * * * * * * * * * * * *
     0.00   | * * * * * * * * * * * * * * * *                            
--------------------------------------------------------------------------------

  Time to end of optimisation =       0.2400 seconds


  Peak dynamic memory used =       0.51 MB 


  Timing analysis for GULP :

--------------------------------------------------------------------------------
  Task / Subroutine                                          Time (Seconds)
--------------------------------------------------------------------------------
  Calculation of real space energy and derivatives                0.2120
  Calculation of phonons                                          0.0680
  Calculation of scattering                                       0.0000
--------------------------------------------------------------------------------
  Total CPU time                                                  0.2400
--------------------------------------------------------------------------------


  Job Finished at 16:06.31  2nd May        2013                               

