********************************************************************************
*                       GENERAL UTILITY LATTICE PROGRAM                        *
*                                 Julian Gale                                  *
*                      Nanochemistry Research Institute                        *
*                           Department of Chemistry                            *
*                    Curtin University, Western Australia                      *
********************************************************************************
* Version = 4.0.7 * Last modified =  14th December 2012                        *
********************************************************************************
*  single       - perform a single point run                                   *
*  phonon       - calculate phonons for final geometry                         *
********************************************************************************

  Job Started  at 13:06.46  2nd May        2013                               

  Number of CPUs =     1


  Total number of configurations input =   1

********************************************************************************
*  Input for Configuration =   1                                               *
********************************************************************************

  Formula = Si3O6                                                       

  Number of irreducible atoms/shells =       9


  Total number atoms/shells =       9

  Dimensionality = 3               :  Bulk   



  Cartesian lattice vectors (Angstroms) :

        4.916000    0.000000    0.000000
        0.000000    4.257200    0.000000
        0.000000    0.000000    5.405400

  Cell parameters (Angstroms/Degrees):

  a =       4.9160    alpha =  90.0000
  b =       4.2572    beta  =  90.0000
  c =       5.4054    gamma =  90.0000

  Initial cell volume =         113.126347 Angs**3

  Temperature of configuration =  0.000     K 

  Pressure of configuration =         0.000 GPa 

  Fractional coordinates of asymmetric unit :

--------------------------------------------------------------------------------
   No.  Atomic       x           y          z         Charge      Occupancy
        Label      (Frac)      (Frac)     (Frac)        (e)         (Frac)  
--------------------------------------------------------------------------------
      1 Si    c    0.469900    0.000000    0.666667     2.40000    1.000000    
      2 Si    c    0.000000    0.469900    0.333333     2.40000    1.000000    
      3 Si    c    0.530100    0.530100    0.000000     2.40000    1.000000    
      4 O     c    0.414100    0.268100    0.785400    -1.20000    1.000000    
      5 O     c    0.731900    0.146000    0.452067    -1.20000    1.000000    
      6 O     c    0.853900    0.585900    0.118733    -1.20000    1.000000    
      7 O     c    0.268100    0.414100    0.214600    -1.20000    1.000000    
      8 O     c    0.585900    0.854000    0.881278    -1.20000    1.000000    
      9 O     c    0.146000    0.731900    0.547933    -1.20000    1.000000    
--------------------------------------------------------------------------------


  Brillouin zone sampling points :

--------------------------------------------------------------------------------
  Point number          x          y          z            Weight
--------------------------------------------------------------------------------
        1           0.000000   0.000000   0.000000         0.0333
        2           0.017241   0.000000   0.000000         0.0333
        3           0.034483   0.000000   0.000000         0.0333
        4           0.051724   0.000000   0.000000         0.0333
        5           0.068966   0.000000   0.000000         0.0333
        6           0.086207   0.000000   0.000000         0.0333
        7           0.103448   0.000000   0.000000         0.0333
        8           0.120690   0.000000   0.000000         0.0333
        9           0.137931   0.000000   0.000000         0.0333
       10           0.155172   0.000000   0.000000         0.0333
       11           0.172414   0.000000   0.000000         0.0333
       12           0.189655   0.000000   0.000000         0.0333
       13           0.206897   0.000000   0.000000         0.0333
       14           0.224138   0.000000   0.000000         0.0333
       15           0.241379   0.000000   0.000000         0.0333
       16           0.258621   0.000000   0.000000         0.0333
       17           0.275862   0.000000   0.000000         0.0333
       18           0.293103   0.000000   0.000000         0.0333
       19           0.310345   0.000000   0.000000         0.0333
       20           0.327586   0.000000   0.000000         0.0333
       21           0.344828   0.000000   0.000000         0.0333
       22           0.362069   0.000000   0.000000         0.0333
       23           0.379310   0.000000   0.000000         0.0333
       24           0.396552   0.000000   0.000000         0.0333
       25           0.413793   0.000000   0.000000         0.0333
       26           0.431034   0.000000   0.000000         0.0333
       27           0.448276   0.000000   0.000000         0.0333
       28           0.465517   0.000000   0.000000         0.0333
       29           0.482759   0.000000   0.000000         0.0333
       30           0.500000   0.000000   0.000000         0.0333
--------------------------------------------------------------------------------


********************************************************************************
*  General input information                                                   *
********************************************************************************

  Species output for all configurations : 

--------------------------------------------------------------------------------
  Species    Type    Atomic    Atomic    Charge       Radii (Angs)     Library
                     Number     Mass       (e)     Cova   Ionic  VDW   Symbol
--------------------------------------------------------------------------------
    Si       Core       14      28.09   2.400000   1.200  0.000  2.100          
    O        Core        8      16.00  -1.200000   0.730  0.000  1.360          
--------------------------------------------------------------------------------


  Lattice summation method               =    Ewald          (3-D)
                                         =    Parry          (2-D)
                                         =    Saunders et al (1-D)
  Accuracy factor for lattice sums       =   12.000


  Time limit = Infinity

  Maximum range for interatomic potentials =    100000.000000 Angstroms

  General interatomic potentials :

--------------------------------------------------------------------------------
Atom  Types   Potential         A         B         C         D     Cutoffs(Ang)
  1     2                                                            Min    Max 
--------------------------------------------------------------------------------
O    c Si   c Buckingham    0.188E+05 0.205      134.      0.00     0.000 10.000
O    c O    c Buckingham    0.134E+04 0.362      175.      0.00     0.000 10.000
--------------------------------------------------------------------------------

********************************************************************************
*  Output for configuration   1                                                *
********************************************************************************


  Components of energy : 

--------------------------------------------------------------------------------
  Interatomic potentials     =           8.42590862 eV
  Monopole - monopole (real) =         -74.24628123 eV
  Monopole - monopole (recip)=         -91.96336435 eV
  Monopole - monopole (total)=        -166.20964559 eV
--------------------------------------------------------------------------------
  Total lattice energy       =        -157.78373697 eV
--------------------------------------------------------------------------------
  Total lattice energy       =          -15223.7187 kJ/(mole unit cells)
--------------------------------------------------------------------------------

  Born effective charge tensors : 

-------------------------------------------------------------------------------
  Atom             x           y             z
-------------------------------------------------------------------------------
   1 Si    x       2.4000      0.0000      0.0000
           y       0.0000      2.4000      0.0000
           z       0.0000      0.0000      2.4000
-------------------------------------------------------------------------------
   2 Si    x       2.4000      0.0000      0.0000
           y       0.0000      2.4000      0.0000
           z       0.0000      0.0000      2.4000
-------------------------------------------------------------------------------
   3 Si    x       2.4000      0.0000      0.0000
           y       0.0000      2.4000      0.0000
           z       0.0000      0.0000      2.4000
-------------------------------------------------------------------------------
   4 O     x      -1.2000      0.0000      0.0000
           y       0.0000     -1.2000      0.0000
           z       0.0000      0.0000     -1.2000
-------------------------------------------------------------------------------
   5 O     x      -1.2000      0.0000      0.0000
           y       0.0000     -1.2000      0.0000
           z       0.0000      0.0000     -1.2000
-------------------------------------------------------------------------------
   6 O     x      -1.2000      0.0000      0.0000
           y       0.0000     -1.2000      0.0000
           z       0.0000      0.0000     -1.2000
-------------------------------------------------------------------------------
   7 O     x      -1.2000      0.0000      0.0000
           y       0.0000     -1.2000      0.0000
           z       0.0000      0.0000     -1.2000
-------------------------------------------------------------------------------
   8 O     x      -1.2000      0.0000      0.0000
           y       0.0000     -1.2000      0.0000
           z       0.0000      0.0000     -1.2000
-------------------------------------------------------------------------------
   9 O     x      -1.2000      0.0000      0.0000
           y       0.0000     -1.2000      0.0000
           z       0.0000      0.0000     -1.2000
-------------------------------------------------------------------------------




  Elastic Constant Matrix: (Units=GPa)

-------------------------------------------------------------------------------
  Indices      1         2         3         4         5         6    
-------------------------------------------------------------------------------
       1    783.4379  526.4552  743.4408 -139.5189    8.5470  413.7093
       2    526.4552  470.2791  657.1505  -41.1288   45.2448  314.6408
       3    743.4408  657.1505  849.7957  -94.7013   -4.1588  398.5206
       4   -139.5189  -41.1288  -94.7013  198.4148   21.9206  -45.4853
       5      8.5470   45.2448   -4.1588   21.9206  180.4586   60.1134
       6    413.7093  314.6408  398.5206  -45.4853   60.1134  247.6518
-------------------------------------------------------------------------------


  Elastic Compliance Matrix: (Units=1/GPa)

-------------------------------------------------------------------------------
  Indices      1         2         3         4         5         6    
-------------------------------------------------------------------------------
       1    0.023239 -0.012301  0.007654  0.007326  0.013764 -0.037506
       2   -0.012301 -0.011115  0.011773 -0.001558 -0.001429  0.015786
       3    0.007654  0.011773 -0.004888  0.000384  0.003399 -0.020632
       4    0.007326 -0.001558  0.000384  0.007454  0.002518 -0.010119
       5    0.013764 -0.001429  0.003399  0.002518  0.014952 -0.029814
       6   -0.037506  0.015786 -0.020632 -0.010119 -0.029814  0.085216
-------------------------------------------------------------------------------

  Mechanical properties :

-------------------------------------------------------------------------------
  Convention :                    Reuss         Voigt         Hill
-------------------------------------------------------------------------------
  Bulk  Modulus (GPa)     =      46.53718     661.95618     354.24668
  Shear Modulus (GPa)     =      46.39616     137.06947      91.73281
-------------------------------------------------------------------------------
  Velocity S-wave (km/s)  =       4.18729       7.19718       5.88782
  Velocity P-wave (km/s)  =       6.40036      17.86682      13.41991
-------------------------------------------------------------------------------
  Compressibility (1/GPa) =    0.02148819
-------------------------------------------------------------------------------
  Stress axis :                     x             y             z
-------------------------------------------------------------------------------
  Youngs Moduli (GPa)     =      43.03047     -89.96883    -204.56212
-------------------------------------------------------------------------------
  Poissons Ratio (x)      =                    -1.10669       1.56572
  Poissons Ratio (y)      =       0.52931                     2.40829
  Poissons Ratio (z)      =      -0.32936       1.05920
-------------------------------------------------------------------------------


  Piezoelectric Strain Matrix: (Units=C/m**2)

-------------------------------------------------------------------------------
  Indices      1         2         3         4         5         6    
-------------------------------------------------------------------------------
       x   -37.98098 -40.74340 -46.55150   3.39449   5.23624 -36.00679
       y   -46.91168 -34.99425 -45.45179  -4.40536   3.73690 -35.57884
       z    -7.51720  -4.84159  -7.85029   2.42979   1.65727  -4.70694
-------------------------------------------------------------------------------


  Piezoelectric Stress Matrix: (Units=10**-11 C/N)

-------------------------------------------------------------------------------
  Indices      1         2         3         4         5         6    
-------------------------------------------------------------------------------
       x    70.96278 -20.91634  21.91751  17.01898  53.75701-151.70285
       y    34.59542 -12.92160  19.62070   2.99871  35.53595 -95.39082
       z     4.19239  -2.65959   2.75183   1.93711   4.79994 -10.76269
-------------------------------------------------------------------------------


  Static dielectric constant tensor : 

-------------------------------------------------------------------------------
              x         y         z
-------------------------------------------------------------------------------
       x    -0.29137  -2.88721  -0.36654
       y    -2.88721  -0.88371  -0.13473
       z    -0.36654  -0.13473   2.47064
--------------------------------------------------------------------------------

  Static refractive indices : 

-------------------------------------------------------------------------------
    1 =   -1.87347      2 =    1.48360      3 =    1.61381
-------------------------------------------------------------------------------


  Phonon Calculation : 

  K direction for n-a correction at gamma =  1.00000  1.00000  1.00000

  Number of k points for this configuration =       30

--------------------------------------------------------------------------------
  K point      1 =   0.000000  0.000000  0.000000  Weight =    0.033
--------------------------------------------------------------------------------

  Frequencies (cm-1) [NB: Negative implies an imaginary mode]:

 -447.32 -378.69 -289.91 -220.65 -146.16   -0.00    0.00    0.00   38.85
  258.31  298.39  324.18  405.06  409.81  458.50  516.18  568.94  592.98
  625.94  650.61  728.17  778.54  987.13 1390.84 1468.68 1527.50 1654.93


--------------------------------------------------------------------------------
  K point      2 =   0.017241  0.000000  0.000000  Weight =    0.033
--------------------------------------------------------------------------------

  Frequencies (cm-1) [NB: Negative implies an imaginary mode]:

 -447.35 -378.68 -289.94 -220.81 -146.04  -33.74    7.30   10.12   52.03
  258.17  298.16  324.56  404.45  409.93  458.78  516.17  568.67  592.99
  625.94  650.79  728.20  778.52  987.14 1390.85 1468.67 1527.50 1654.92


--------------------------------------------------------------------------------
  K point      3 =   0.034483  0.000000  0.000000  Weight =    0.033
--------------------------------------------------------------------------------

  Frequencies (cm-1) [NB: Negative implies an imaginary mode]:

 -447.45 -378.64 -290.03 -221.30 -145.70  -52.33   14.62   20.19   66.98
  257.75  297.48  325.66  402.85  410.11  459.60  516.14  567.88  593.04
  625.94  651.33  728.30  778.45  987.16 1390.87 1468.65 1527.52 1654.89


--------------------------------------------------------------------------------
  K point      4 =   0.051724  0.000000  0.000000  Weight =    0.033
--------------------------------------------------------------------------------

  Frequencies (cm-1) [NB: Negative implies an imaginary mode]:

 -447.61 -378.58 -290.18 -222.10 -145.15  -65.71   21.98   30.19   79.78
  257.07  296.48  327.36  400.58  410.12  460.87  516.06  566.60  593.13
  625.93  652.18  728.44  778.34  987.19 1390.90 1468.62 1527.55 1654.84


--------------------------------------------------------------------------------
  K point      5 =   0.068966  0.000000  0.000000  Weight =    0.033
--------------------------------------------------------------------------------

  Frequencies (cm-1) [NB: Negative implies an imaginary mode]:

 -447.83 -378.50 -290.37 -223.18 -144.46  -76.39   29.39   40.08   91.11
  256.15  295.25  329.52  397.85  409.86  462.48  515.91  564.90  593.28
  625.90  653.33  728.64  778.20  987.24 1390.95 1468.57 1527.60 1654.77


--------------------------------------------------------------------------------
  K point      6 =   0.086207  0.000000  0.000000  Weight =    0.033
--------------------------------------------------------------------------------

  Frequencies (cm-1) [NB: Negative implies an imaginary mode]:

 -448.11 -378.40 -290.60 -224.51 -143.71  -85.27   36.85   49.81  101.40
  255.02  293.91  332.01  394.76  409.37  464.33  515.64  562.90  593.52
  625.84  654.72  728.87  778.04  987.30 1391.00 1468.51 1527.65 1654.69


--------------------------------------------------------------------------------
  K point      7 =   0.103448  0.000000  0.000000  Weight =    0.033
--------------------------------------------------------------------------------

  Frequencies (cm-1) [NB: Negative implies an imaginary mode]:

 -448.44 -378.29 -290.85 -226.05 -143.00  -92.78   44.35   59.37  110.90
  253.73  292.51  334.73  391.43  408.65  466.30  515.19  560.68  593.83
  625.74  656.29  729.11  777.86  987.37 1391.07 1468.44 1527.72 1654.58


--------------------------------------------------------------------------------
  K point      8 =   0.120690  0.000000  0.000000  Weight =    0.033
--------------------------------------------------------------------------------

  Frequencies (cm-1) [NB: Negative implies an imaginary mode]:

 -448.82 -378.17 -291.12 -227.78 -142.47  -99.09   51.87   68.70  119.77
  252.30  291.09  337.59  387.95  407.77  468.30  514.47  558.41  594.25
  625.60  658.00  729.35  777.68  987.45 1391.15 1468.36 1527.80 1654.47


--------------------------------------------------------------------------------
  K point      9 =   0.137931  0.000000  0.000000  Weight =    0.033
--------------------------------------------------------------------------------

  Frequencies (cm-1) [NB: Negative implies an imaginary mode]:

 -449.23 -378.05 -291.38 -229.63 -142.30 -104.27   59.39   77.79  128.10
  250.80  289.69  340.51  384.38  406.74  470.25  513.41  556.19  594.75
  625.44  659.78  729.58  777.52  987.54 1391.24 1468.27 1527.88 1654.33


--------------------------------------------------------------------------------
  K point     10 =   0.155172  0.000000  0.000000  Weight =    0.033
--------------------------------------------------------------------------------

  Frequencies (cm-1) [NB: Negative implies an imaginary mode]:

 -449.68 -377.93 -291.63 -231.59 -142.70 -108.25   66.87   86.59  135.97
  249.27  288.32  343.42  380.82  405.62  472.07  511.91  554.18  595.36
  625.27  661.59  729.76  777.38  987.64 1391.34 1468.17 1527.98 1654.19


--------------------------------------------------------------------------------
  K point     11 =   0.172414  0.000000  0.000000  Weight =    0.033
--------------------------------------------------------------------------------

  Frequencies (cm-1) [NB: Negative implies an imaginary mode]:

 -450.16 -377.81 -291.86 -233.61 -143.84 -110.99   74.26   95.08  143.41
  247.77  286.99  346.24  377.35  404.43  473.71  509.93  552.47  596.06
  625.10  663.39  729.89  777.28  987.75 1391.44 1468.07 1528.08 1654.03


--------------------------------------------------------------------------------
  K point     12 =   0.189655  0.000000  0.000000  Weight =    0.033
--------------------------------------------------------------------------------

  Frequencies (cm-1) [NB: Negative implies an imaginary mode]:

 -450.66 -377.70 -292.05 -235.65 -145.79 -112.52   81.51  103.22  150.43
  246.34  285.72  348.84  374.08  403.23  475.09  507.47  551.12  596.85
  624.95  665.14  729.94  777.25  987.86 1391.55 1467.96 1528.18 1653.87


--------------------------------------------------------------------------------
  K point     13 =   0.206897  0.000000  0.000000  Weight =    0.033
--------------------------------------------------------------------------------

  Frequencies (cm-1) [NB: Negative implies an imaginary mode]:

 -451.17 -377.60 -292.20 -237.69 -148.43 -113.01   88.59  110.98  157.04
  245.05  284.53  351.05  371.18  402.04  476.13  504.61  550.15  597.72
  624.85  666.80  729.91  777.27  987.97 1391.67 1467.84 1528.29 1653.70


--------------------------------------------------------------------------------
  K point     14 =   0.224138  0.000000  0.000000  Weight =    0.033
--------------------------------------------------------------------------------

  Frequencies (cm-1) [NB: Negative implies an imaginary mode]:

 -451.69 -377.52 -292.30 -239.69 -151.57 -112.70   95.45  118.32  163.23
  243.95  283.43  352.60  368.94  400.91  476.70  501.50  549.51  598.66
  624.81  668.34  729.79  777.37  988.09 1391.79 1467.72 1528.41 1653.52


--------------------------------------------------------------------------------
  K point     15 =   0.241379  0.000000  0.000000  Weight =    0.033
--------------------------------------------------------------------------------

  Frequencies (cm-1) [NB: Negative implies an imaginary mode]:

 -452.21 -377.46 -292.34 -241.62 -155.03 -111.83  102.05  125.22  168.94
  243.09  282.46  353.12  367.71  399.86  476.62  498.41  549.14  599.65
  624.87  669.73  729.59  777.54  988.20 1391.91 1467.60 1528.52 1653.34


--------------------------------------------------------------------------------
  K point     16 =   0.258621  0.000000  0.000000  Weight =    0.033
--------------------------------------------------------------------------------

  Frequencies (cm-1) [NB: Negative implies an imaginary mode]:

 -452.72 -377.41 -292.34 -243.47 -158.63 -110.58  108.36  131.64  174.15
  242.55  281.65  352.48  367.60  398.94  475.62  495.70  548.97  600.67
  625.05  670.96  729.30  777.79  988.32 1392.04 1467.48 1528.63 1653.16


--------------------------------------------------------------------------------
  K point     17 =   0.275862  0.000000  0.000000  Weight =    0.033
--------------------------------------------------------------------------------

  Frequencies (cm-1) [NB: Negative implies an imaginary mode]:

 -453.22 -377.38 -292.28 -245.21 -162.28 -109.06  114.34  137.58  178.77
  242.36  281.03  351.03  368.29  398.17  473.49  493.68  548.94  601.68
  625.39  672.00  728.93  778.10  988.43 1392.16 1467.36 1528.75 1652.98


--------------------------------------------------------------------------------
  K point     18 =   0.293103  0.000000  0.000000  Weight =    0.033
--------------------------------------------------------------------------------

  Frequencies (cm-1) [NB: Negative implies an imaginary mode]:

 -453.71 -377.37 -292.18 -246.82 -165.90 -107.38  119.98  143.00  182.77
  242.54  280.63  349.26  369.29  397.55  470.25  492.42  548.99  602.65
  625.90  672.84  728.51  778.47  988.54 1392.28 1467.24 1528.86 1652.81


--------------------------------------------------------------------------------
  K point     19 =   0.310345  0.000000  0.000000  Weight =    0.033
--------------------------------------------------------------------------------

  Frequencies (cm-1) [NB: Negative implies an imaginary mode]:

 -454.18 -377.37 -292.04 -248.29 -169.42 -105.60  125.24  147.91  186.10
  243.08  280.48  347.52  370.29  397.08  466.19  491.77  549.07  603.55
  626.61  673.46  728.04  778.89  988.65 1392.40 1467.12 1528.96 1652.64


--------------------------------------------------------------------------------
  K point     20 =   0.327586  0.000000  0.000000  Weight =    0.033
--------------------------------------------------------------------------------

  Frequencies (cm-1) [NB: Negative implies an imaginary mode]:

 -454.62 -377.39 -291.87 -249.60 -172.82 -103.77  130.12  152.30  188.76
  243.93  280.59  346.05  371.14  396.71  461.63  491.49  549.17  604.36
  627.53  673.86  727.56  779.34  988.75 1392.51 1467.01 1529.06 1652.48


--------------------------------------------------------------------------------
  K point     21 =   0.344828  0.000000  0.000000  Weight =    0.033
--------------------------------------------------------------------------------

  Frequencies (cm-1) [NB: Negative implies an imaginary mode]:

 -455.03 -377.42 -291.68 -250.76 -176.04 -101.94  134.60  156.15  190.81
  244.99  280.96  344.97  371.77  396.36  456.88  491.40  549.25  605.04
  628.64  674.05  727.08  779.81  988.85 1392.62 1466.91 1529.16 1652.32


--------------------------------------------------------------------------------
  K point     22 =   0.362069  0.000000  0.000000  Weight =    0.033
--------------------------------------------------------------------------------

  Frequencies (cm-1) [NB: Negative implies an imaginary mode]:

 -455.40 -377.45 -291.49 -251.75 -179.06 -100.14  138.69  159.48  192.31
  246.15  281.55  344.42  372.20  395.92  452.16  491.40  549.31  605.61
  629.91  674.02  726.63  780.27  988.93 1392.72 1466.81 1529.25 1652.18


--------------------------------------------------------------------------------
  K point     23 =   0.379310  0.000000  0.000000  Weight =    0.033
--------------------------------------------------------------------------------

  Frequencies (cm-1) [NB: Negative implies an imaginary mode]:

 -455.74 -377.49 -291.29 -252.58 -181.84  -98.42  142.36  162.28  193.39
  247.31  282.28  344.47  372.47  395.24  447.69  491.45  549.34  606.05
  631.31  673.81  726.20  780.73  989.01 1392.81 1466.72 1529.33 1652.05


--------------------------------------------------------------------------------
  K point     24 =   0.396552  0.000000  0.000000  Weight =    0.033
--------------------------------------------------------------------------------

  Frequencies (cm-1) [NB: Negative implies an imaginary mode]:

 -456.04 -377.54 -291.10 -253.26 -184.34  -96.83  145.62  164.57  194.14
  248.38  283.05  345.15  372.62  394.18  443.64  491.51  549.36  606.40
  632.77  673.45  725.82  781.15  989.08 1392.89 1466.65 1529.40 1651.94


--------------------------------------------------------------------------------
  K point     25 =   0.413793  0.000000  0.000000  Weight =    0.033
--------------------------------------------------------------------------------

  Frequencies (cm-1) [NB: Negative implies an imaginary mode]:

 -456.30 -377.58 -290.93 -253.79 -186.53  -95.39  148.46  166.35  194.67
  249.31  283.78  346.44  372.73  392.65  440.17  491.56  549.36  606.65
  634.22  672.97  725.50  781.53  989.14 1392.96 1466.58 1529.46 1651.84


--------------------------------------------------------------------------------
  K point     26 =   0.431034  0.000000  0.000000  Weight =    0.033
--------------------------------------------------------------------------------

  Frequencies (cm-1) [NB: Negative implies an imaginary mode]:

 -456.52 -377.62 -290.79 -254.19 -188.38  -94.16  150.86  167.67  195.04
  250.07  284.41  348.22  372.86  390.64  437.38  491.60  549.34  606.84
  635.58  672.43  725.24  781.86  989.19 1393.02 1466.52 1529.51 1651.76


--------------------------------------------------------------------------------
  K point     27 =   0.448276  0.000000  0.000000  Weight =    0.033
--------------------------------------------------------------------------------

  Frequencies (cm-1) [NB: Negative implies an imaginary mode]:

 -456.68 -377.65 -290.67 -254.48 -189.86  -93.15  152.79  168.57  195.31
  250.66  284.88  350.28  373.08  388.25  435.29  491.64  549.32  606.96
  636.77  671.91  725.03  782.12  989.23 1393.06 1466.48 1529.55 1651.69


--------------------------------------------------------------------------------
  K point     28 =   0.465517  0.000000  0.000000  Weight =    0.033
--------------------------------------------------------------------------------

  Frequencies (cm-1) [NB: Negative implies an imaginary mode]:

 -456.81 -377.68 -290.59 -254.67 -190.93  -92.42  154.23  169.13  195.49
  251.08  285.21  352.28  373.45  385.79  433.88  491.66  549.30  607.04
  637.69  671.47  724.89  782.31  989.25 1393.10 1466.44 1529.58 1651.64


--------------------------------------------------------------------------------
  K point     29 =   0.482759  0.000000  0.000000  Weight =    0.033
--------------------------------------------------------------------------------

  Frequencies (cm-1) [NB: Negative implies an imaginary mode]:

 -456.88 -377.69 -290.54 -254.77 -191.59  -91.96  155.11  169.42  195.61
  251.33  285.40  353.77  373.90  383.76  433.07  491.67  549.29  607.09
  638.28  671.17  724.80  782.43  989.27 1393.12 1466.42 1529.60 1651.62


--------------------------------------------------------------------------------
  K point     30 =   0.500000  0.000000  0.000000  Weight =    0.033
--------------------------------------------------------------------------------

  Frequencies (cm-1) [NB: Negative implies an imaginary mode]:

 -456.90 -377.70 -290.52 -254.81 -191.81  -91.81  155.41  169.51  195.65
  251.42  285.45  354.33  374.14  382.94  432.81  491.67  549.28  607.11
  638.49  671.06  724.77  782.47  989.28 1393.12 1466.42 1529.60 1651.61


--------------------------------------------------------------------------------
  Phonon properties (per mole of unit cells): Temperature =      0.000 K
--------------------------------------------------------------------------------
  Zero point energy            =        0.865666 eV
--------------------------------------------------------------------------------

  Phonon dispersion curves : 

--------------------------------------------------------------------------------
  Section number =   1
--------------------------------------------------------------------------------
  Frequency (cm-1) Phonon dispersion                                            
--------------------------------------------------------------------------------
  1598.33   | * * * * * * * * * * * * * * * * * * * * * * * * * * * * * *
  1531.73   |                                                            
  1465.14   | * * * * * * * * * * * * * * * * * * * * * * * * * * * * * *
  1398.54   |                                                            
  1331.94   | * * * * * * * * * * * * * * * * * * * * * * * * * * * * * *
  1265.35   |                                                            
  1198.75   |                                                            
  1132.15   |                                                            
  1065.55   |                                                            
   998.96   |                                                            
   932.36   | * * * * * * * * * * * * * * * * * * * * * * * * * * * * * *
   865.76   |                                                            
   799.17   |                                                            
   732.57   | * * * * * * * * * * * * * * * * * * * * * * * * * * * * * *
   665.97   | * * * * * * * * * * * * * * * * * * * * * * * * * * * * * *
   599.37   | * * * * * * * * * * * * * * * * * * * * * * * * * * * * * *
   532.78   | * * * * * * * * * * * * * * * * * * * * * * * * * * * * * *
   466.18   | * * * * * * * * * * * * * * * * * * * * * * * * * * * * * *
   399.58   | * * * * * * * * * * * * * * *         * * * * * * * * * * *
   332.99   |         * * * * * * * * * * * * * * * * * * * * * * * * * *
   266.39   | * * * * * * * * * * * * * * * * * * * * * * * * * * * * * *
   199.79   | * * * * * * * * * * * * * * * * * * * * * * * * * * * * * *
   133.19   |                   * * * * * * * * * * * * * * * * * * * * *
    66.60   |     * * * * * * * * * * * * * * * * * *                    
     0.00   | * * * * * * * * *                                          
--------------------------------------------------------------------------------

  XYZ File written as gulp.xyz                                


  Time to end of properties =       0.1600 seconds


  Peak dynamic memory used =       0.51 MB 


  Timing analysis for GULP :

--------------------------------------------------------------------------------
  Task / Subroutine                                          Time (Seconds)
--------------------------------------------------------------------------------
  Calculation of reciprocal space energy and derivatives          0.0840
  Calculation of real space energy and derivatives                0.0560
  Calculation of phonons                                          0.1480
  Calculation of scattering                                       0.0000
--------------------------------------------------------------------------------
  Total CPU time                                                  0.1600
--------------------------------------------------------------------------------


  Job Finished at 13:06.46  2nd May        2013                               

