# Position data for LJ Ar in 864 atom cell		

4000 atoms
1 atom types	

0.0 15.559 xlo xhi
0.0 15.559 ylo yhi
0.0 15.559 zlo zhi

#-15.16 0.0 0.0 xy xz yz

Masses

1 1.0

Atoms				

2560 4 62.235 6.2235 6.2235
1 1 0 0 0
2 1 0.77794 0.77794 0
3 1 0.77794 0 0.77794
4 1 0 0.77794 0.77794
5 1 0 0 1.5559
6 1 0.77794 0.77794 1.5559
7 1 0.77794 0 2.3338
8 1 0 0.77794 2.3338
9 1 0 0 3.1118
10 1 0.77794 0.77794 3.1118
11 1 0.77794 0 3.8897
12 1 0 0.77794 3.8897
13 1 0 0 4.6676
14 1 0.77794 0.77794 4.6676
15 1 0.77794 0 5.4456
16 1 0 0.77794 5.4456
17 1 0 1.5559 0
18 1 0.77794 2.3338 0
19 1 0.77794 1.5559 0.77794
20 1 0 2.3338 0.77794
21 1 0 1.5559 1.5559
22 1 0.77794 2.3338 1.5559
23 1 0.77794 1.5559 2.3338
24 1 0 2.3338 2.3338
25 1 0 1.5559 3.1118
26 1 0.77794 2.3338 3.1118
27 1 0.77794 1.5559 3.8897
28 1 0 2.3338 3.8897
29 1 0 1.5559 4.6676
30 1 0.77794 2.3338 4.6676
31 1 0.77794 1.5559 5.4456
32 1 0 2.3338 5.4456
33 1 0 3.1118 0
34 1 0.77794 3.8897 0
35 1 0.77794 3.1118 0.77794
36 1 0 3.8897 0.77794
37 1 0 3.1118 1.5559
38 1 0.77794 3.8897 1.5559
39 1 0.77794 3.1118 2.3338
40 1 0 3.8897 2.3338
41 1 0 3.1118 3.1118
42 1 0.77794 3.8897 3.1118
43 1 0.77794 3.1118 3.8897
44 1 0 3.8897 3.8897
45 1 0 3.1118 4.6676
46 1 0.77794 3.8897 4.6676
47 1 0.77794 3.1118 5.4456
48 1 0 3.8897 5.4456
49 1 0 4.6676 0
50 1 0.77794 5.4456 0
51 1 0.77794 4.6676 0.77794
52 1 0 5.4456 0.77794
53 1 0 4.6676 1.5559
54 1 0.77794 5.4456 1.5559
55 1 0.77794 4.6676 2.3338
56 1 0 5.4456 2.3338
57 1 0 4.6676 3.1118
58 1 0.77794 5.4456 3.1118
59 1 0.77794 4.6676 3.8897
60 1 0 5.4456 3.8897
61 1 0 4.6676 4.6676
62 1 0.77794 5.4456 4.6676
63 1 0.77794 4.6676 5.4456
64 1 0 5.4456 5.4456
65 1 1.5559 0 0
66 1 2.3338 0.77794 0
67 1 2.3338 0 0.77794
68 1 1.5559 0.77794 0.77794
69 1 1.5559 0 1.5559
70 1 2.3338 0.77794 1.5559
71 1 2.3338 0 2.3338
72 1 1.5559 0.77794 2.3338
73 1 1.5559 0 3.1118
74 1 2.3338 0.77794 3.1118
75 1 2.3338 0 3.8897
76 1 1.5559 0.77794 3.8897
77 1 1.5559 0 4.6676
78 1 2.3338 0.77794 4.6676
79 1 2.3338 0 5.4456
80 1 1.5559 0.77794 5.4456
81 1 1.5559 1.5559 0
82 1 2.3338 2.3338 0
83 1 2.3338 1.5559 0.77794
84 1 1.5559 2.3338 0.77794
85 1 1.5559 1.5559 1.5559
86 1 2.3338 2.3338 1.5559
87 1 2.3338 1.5559 2.3338
88 1 1.5559 2.3338 2.3338
89 1 1.5559 1.5559 3.1118
90 1 2.3338 2.3338 3.1118
91 1 2.3338 1.5559 3.8897
92 1 1.5559 2.3338 3.8897
93 1 1.5559 1.5559 4.6676
94 1 2.3338 2.3338 4.6676
95 1 2.3338 1.5559 5.4456
96 1 1.5559 2.3338 5.4456
97 1 1.5559 3.1118 0
98 1 2.3338 3.8897 0
99 1 2.3338 3.1118 0.77794
100 1 1.5559 3.8897 0.77794
101 1 1.5559 3.1118 1.5559
102 1 2.3338 3.8897 1.5559
103 1 2.3338 3.1118 2.3338
104 1 1.5559 3.8897 2.3338
105 1 1.5559 3.1118 3.1118
106 1 2.3338 3.8897 3.1118
107 1 2.3338 3.1118 3.8897
108 1 1.5559 3.8897 3.8897
109 1 1.5559 3.1118 4.6676
110 1 2.3338 3.8897 4.6676
111 1 2.3338 3.1118 5.4456
112 1 1.5559 3.8897 5.4456
113 1 1.5559 4.6676 0
114 1 2.3338 5.4456 0
115 1 2.3338 4.6676 0.77794
116 1 1.5559 5.4456 0.77794
117 1 1.5559 4.6676 1.5559
118 1 2.3338 5.4456 1.5559
119 1 2.3338 4.6676 2.3338
120 1 1.5559 5.4456 2.3338
121 1 1.5559 4.6676 3.1118
122 1 2.3338 5.4456 3.1118
123 1 2.3338 4.6676 3.8897
124 1 1.5559 5.4456 3.8897
125 1 1.5559 4.6676 4.6676
126 1 2.3338 5.4456 4.6676
127 1 2.3338 4.6676 5.4456
128 1 1.5559 5.4456 5.4456
129 1 3.1118 0 0
130 1 3.8897 0.77794 0
131 1 3.8897 0 0.77794
132 1 3.1118 0.77794 0.77794
133 1 3.1118 0 1.5559
134 1 3.8897 0.77794 1.5559
135 1 3.8897 0 2.3338
136 1 3.1118 0.77794 2.3338
137 1 3.1118 0 3.1118
138 1 3.8897 0.77794 3.1118
139 1 3.8897 0 3.8897
140 1 3.1118 0.77794 3.8897
141 1 3.1118 0 4.6676
142 1 3.8897 0.77794 4.6676
143 1 3.8897 0 5.4456
144 1 3.1118 0.77794 5.4456
145 1 3.1118 1.5559 0
146 1 3.8897 2.3338 0
147 1 3.8897 1.5559 0.77794
148 1 3.1118 2.3338 0.77794
149 1 3.1118 1.5559 1.5559
150 1 3.8897 2.3338 1.5559
151 1 3.8897 1.5559 2.3338
152 1 3.1118 2.3338 2.3338
153 1 3.1118 1.5559 3.1118
154 1 3.8897 2.3338 3.1118
155 1 3.8897 1.5559 3.8897
156 1 3.1118 2.3338 3.8897
157 1 3.1118 1.5559 4.6676
158 1 3.8897 2.3338 4.6676
159 1 3.8897 1.5559 5.4456
160 1 3.1118 2.3338 5.4456
161 1 3.1118 3.1118 0
162 1 3.8897 3.8897 0
163 1 3.8897 3.1118 0.77794
164 1 3.1118 3.8897 0.77794
165 1 3.1118 3.1118 1.5559
166 1 3.8897 3.8897 1.5559
167 1 3.8897 3.1118 2.3338
168 1 3.1118 3.8897 2.3338
169 1 3.1118 3.1118 3.1118
170 1 3.8897 3.8897 3.1118
171 1 3.8897 3.1118 3.8897
172 1 3.1118 3.8897 3.8897
173 1 3.1118 3.1118 4.6676
174 1 3.8897 3.8897 4.6676
175 1 3.8897 3.1118 5.4456
176 1 3.1118 3.8897 5.4456
177 1 3.1118 4.6676 0
178 1 3.8897 5.4456 0
179 1 3.8897 4.6676 0.77794
180 1 3.1118 5.4456 0.77794
181 1 3.1118 4.6676 1.5559
182 1 3.8897 5.4456 1.5559
183 1 3.8897 4.6676 2.3338
184 1 3.1118 5.4456 2.3338
185 1 3.1118 4.6676 3.1118
186 1 3.8897 5.4456 3.1118
187 1 3.8897 4.6676 3.8897
188 1 3.1118 5.4456 3.8897
189 1 3.1118 4.6676 4.6676
190 1 3.8897 5.4456 4.6676
191 1 3.8897 4.6676 5.4456
192 1 3.1118 5.4456 5.4456
193 1 4.6676 0 0
194 1 5.4456 0.77794 0
195 1 5.4456 0 0.77794
196 1 4.6676 0.77794 0.77794
197 1 4.6676 0 1.5559
198 1 5.4456 0.77794 1.5559
199 1 5.4456 0 2.3338
200 1 4.6676 0.77794 2.3338
201 1 4.6676 0 3.1118
202 1 5.4456 0.77794 3.1118
203 1 5.4456 0 3.8897
204 1 4.6676 0.77794 3.8897
205 1 4.6676 0 4.6676
206 1 5.4456 0.77794 4.6676
207 1 5.4456 0 5.4456
208 1 4.6676 0.77794 5.4456
209 1 4.6676 1.5559 0
210 1 5.4456 2.3338 0
211 1 5.4456 1.5559 0.77794
212 1 4.6676 2.3338 0.77794
213 1 4.6676 1.5559 1.5559
214 1 5.4456 2.3338 1.5559
215 1 5.4456 1.5559 2.3338
216 1 4.6676 2.3338 2.3338
217 1 4.6676 1.5559 3.1118
218 1 5.4456 2.3338 3.1118
219 1 5.4456 1.5559 3.8897
220 1 4.6676 2.3338 3.8897
221 1 4.6676 1.5559 4.6676
222 1 5.4456 2.3338 4.6676
223 1 5.4456 1.5559 5.4456
224 1 4.6676 2.3338 5.4456
225 1 4.6676 3.1118 0
226 1 5.4456 3.8897 0
227 1 5.4456 3.1118 0.77794
228 1 4.6676 3.8897 0.77794
229 1 4.6676 3.1118 1.5559
230 1 5.4456 3.8897 1.5559
231 1 5.4456 3.1118 2.3338
232 1 4.6676 3.8897 2.3338
233 1 4.6676 3.1118 3.1118
234 1 5.4456 3.8897 3.1118
235 1 5.4456 3.1118 3.8897
236 1 4.6676 3.8897 3.8897
237 1 4.6676 3.1118 4.6676
238 1 5.4456 3.8897 4.6676
239 1 5.4456 3.1118 5.4456
240 1 4.6676 3.8897 5.4456
241 1 4.6676 4.6676 0
242 1 5.4456 5.4456 0
243 1 5.4456 4.6676 0.77794
244 1 4.6676 5.4456 0.77794
245 1 4.6676 4.6676 1.5559
246 1 5.4456 5.4456 1.5559
247 1 5.4456 4.6676 2.3338
248 1 4.6676 5.4456 2.3338
249 1 4.6676 4.6676 3.1118
250 1 5.4456 5.4456 3.1118
251 1 5.4456 4.6676 3.8897
252 1 4.6676 5.4456 3.8897
253 1 4.6676 4.6676 4.6676
254 1 5.4456 5.4456 4.6676
255 1 5.4456 4.6676 5.4456
256 1 4.6676 5.4456 5.4456
257 1 6.2235 0 0
258 1 7.0015 0.77794 0
259 1 7.0015 0 0.77794
260 1 6.2235 0.77794 0.77794
261 1 6.2235 0 1.5559
262 1 7.0015 0.77794 1.5559
263 1 7.0015 0 2.3338
264 1 6.2235 0.77794 2.3338
265 1 6.2235 0 3.1118
266 1 7.0015 0.77794 3.1118
267 1 7.0015 0 3.8897
268 1 6.2235 0.77794 3.8897
269 1 6.2235 0 4.6676
270 1 7.0015 0.77794 4.6676
271 1 7.0015 0 5.4456
272 1 6.2235 0.77794 5.4456
273 1 6.2235 1.5559 0
274 1 7.0015 2.3338 0
275 1 7.0015 1.5559 0.77794
276 1 6.2235 2.3338 0.77794
277 1 6.2235 1.5559 1.5559
278 1 7.0015 2.3338 1.5559
279 1 7.0015 1.5559 2.3338
280 1 6.2235 2.3338 2.3338
281 1 6.2235 1.5559 3.1118
282 1 7.0015 2.3338 3.1118
283 1 7.0015 1.5559 3.8897
284 1 6.2235 2.3338 3.8897
285 1 6.2235 1.5559 4.6676
286 1 7.0015 2.3338 4.6676
287 1 7.0015 1.5559 5.4456
288 1 6.2235 2.3338 5.4456
289 1 6.2235 3.1118 0
290 1 7.0015 3.8897 0
291 1 7.0015 3.1118 0.77794
292 1 6.2235 3.8897 0.77794
293 1 6.2235 3.1118 1.5559
294 1 7.0015 3.8897 1.5559
295 1 7.0015 3.1118 2.3338
296 1 6.2235 3.8897 2.3338
297 1 6.2235 3.1118 3.1118
298 1 7.0015 3.8897 3.1118
299 1 7.0015 3.1118 3.8897
300 1 6.2235 3.8897 3.8897
301 1 6.2235 3.1118 4.6676
302 1 7.0015 3.8897 4.6676
303 1 7.0015 3.1118 5.4456
304 1 6.2235 3.8897 5.4456
305 1 6.2235 4.6676 0
306 1 7.0015 5.4456 0
307 1 7.0015 4.6676 0.77794
308 1 6.2235 5.4456 0.77794
309 1 6.2235 4.6676 1.5559
310 1 7.0015 5.4456 1.5559
311 1 7.0015 4.6676 2.3338
312 1 6.2235 5.4456 2.3338
313 1 6.2235 4.6676 3.1118
314 1 7.0015 5.4456 3.1118
315 1 7.0015 4.6676 3.8897
316 1 6.2235 5.4456 3.8897
317 1 6.2235 4.6676 4.6676
318 1 7.0015 5.4456 4.6676
319 1 7.0015 4.6676 5.4456
320 1 6.2235 5.4456 5.4456
321 1 7.7794 0 0
322 1 8.5574 0.77794 0
323 1 8.5574 0 0.77794
324 1 7.7794 0.77794 0.77794
325 1 7.7794 0 1.5559
326 1 8.5574 0.77794 1.5559
327 1 8.5574 0 2.3338
328 1 7.7794 0.77794 2.3338
329 1 7.7794 0 3.1118
330 1 8.5574 0.77794 3.1118
331 1 8.5574 0 3.8897
332 1 7.7794 0.77794 3.8897
333 1 7.7794 0 4.6676
334 1 8.5574 0.77794 4.6676
335 1 8.5574 0 5.4456
336 1 7.7794 0.77794 5.4456
337 1 7.7794 1.5559 0
338 1 8.5574 2.3338 0
339 1 8.5574 1.5559 0.77794
340 1 7.7794 2.3338 0.77794
341 1 7.7794 1.5559 1.5559
342 1 8.5574 2.3338 1.5559
343 1 8.5574 1.5559 2.3338
344 1 7.7794 2.3338 2.3338
345 1 7.7794 1.5559 3.1118
346 1 8.5574 2.3338 3.1118
347 1 8.5574 1.5559 3.8897
348 1 7.7794 2.3338 3.8897
349 1 7.7794 1.5559 4.6676
350 1 8.5574 2.3338 4.6676
351 1 8.5574 1.5559 5.4456
352 1 7.7794 2.3338 5.4456
353 1 7.7794 3.1118 0
354 1 8.5574 3.8897 0
355 1 8.5574 3.1118 0.77794
356 1 7.7794 3.8897 0.77794
357 1 7.7794 3.1118 1.5559
358 1 8.5574 3.8897 1.5559
359 1 8.5574 3.1118 2.3338
360 1 7.7794 3.8897 2.3338
361 1 7.7794 3.1118 3.1118
362 1 8.5574 3.8897 3.1118
363 1 8.5574 3.1118 3.8897
364 1 7.7794 3.8897 3.8897
365 1 7.7794 3.1118 4.6676
366 1 8.5574 3.8897 4.6676
367 1 8.5574 3.1118 5.4456
368 1 7.7794 3.8897 5.4456
369 1 7.7794 4.6676 0
370 1 8.5574 5.4456 0
371 1 8.5574 4.6676 0.77794
372 1 7.7794 5.4456 0.77794
373 1 7.7794 4.6676 1.5559
374 1 8.5574 5.4456 1.5559
375 1 8.5574 4.6676 2.3338
376 1 7.7794 5.4456 2.3338
377 1 7.7794 4.6676 3.1118
378 1 8.5574 5.4456 3.1118
379 1 8.5574 4.6676 3.8897
380 1 7.7794 5.4456 3.8897
381 1 7.7794 4.6676 4.6676
382 1 8.5574 5.4456 4.6676
383 1 8.5574 4.6676 5.4456
384 1 7.7794 5.4456 5.4456
385 1 9.3353 0 0
386 1 10.113 0.77794 0
387 1 10.113 0 0.77794
388 1 9.3353 0.77794 0.77794
389 1 9.3353 0 1.5559
390 1 10.113 0.77794 1.5559
391 1 10.113 0 2.3338
392 1 9.3353 0.77794 2.3338
393 1 9.3353 0 3.1118
394 1 10.113 0.77794 3.1118
395 1 10.113 0 3.8897
396 1 9.3353 0.77794 3.8897
397 1 9.3353 0 4.6676
398 1 10.113 0.77794 4.6676
399 1 10.113 0 5.4456
400 1 9.3353 0.77794 5.4456
401 1 9.3353 1.5559 0
402 1 10.113 2.3338 0
403 1 10.113 1.5559 0.77794
404 1 9.3353 2.3338 0.77794
405 1 9.3353 1.5559 1.5559
406 1 10.113 2.3338 1.5559
407 1 10.113 1.5559 2.3338
408 1 9.3353 2.3338 2.3338
409 1 9.3353 1.5559 3.1118
410 1 10.113 2.3338 3.1118
411 1 10.113 1.5559 3.8897
412 1 9.3353 2.3338 3.8897
413 1 9.3353 1.5559 4.6676
414 1 10.113 2.3338 4.6676
415 1 10.113 1.5559 5.4456
416 1 9.3353 2.3338 5.4456
417 1 9.3353 3.1118 0
418 1 10.113 3.8897 0
419 1 10.113 3.1118 0.77794
420 1 9.3353 3.8897 0.77794
421 1 9.3353 3.1118 1.5559
422 1 10.113 3.8897 1.5559
423 1 10.113 3.1118 2.3338
424 1 9.3353 3.8897 2.3338
425 1 9.3353 3.1118 3.1118
426 1 10.113 3.8897 3.1118
427 1 10.113 3.1118 3.8897
428 1 9.3353 3.8897 3.8897
429 1 9.3353 3.1118 4.6676
430 1 10.113 3.8897 4.6676
431 1 10.113 3.1118 5.4456
432 1 9.3353 3.8897 5.4456
433 1 9.3353 4.6676 0
434 1 10.113 5.4456 0
435 1 10.113 4.6676 0.77794
436 1 9.3353 5.4456 0.77794
437 1 9.3353 4.6676 1.5559
438 1 10.113 5.4456 1.5559
439 1 10.113 4.6676 2.3338
440 1 9.3353 5.4456 2.3338
441 1 9.3353 4.6676 3.1118
442 1 10.113 5.4456 3.1118
443 1 10.113 4.6676 3.8897
444 1 9.3353 5.4456 3.8897
445 1 9.3353 4.6676 4.6676
446 1 10.113 5.4456 4.6676
447 1 10.113 4.6676 5.4456
448 1 9.3353 5.4456 5.4456
449 1 10.891 0 0
450 1 11.669 0.77794 0
451 1 11.669 0 0.77794
452 1 10.891 0.77794 0.77794
453 1 10.891 0 1.5559
454 1 11.669 0.77794 1.5559
455 1 11.669 0 2.3338
456 1 10.891 0.77794 2.3338
457 1 10.891 0 3.1118
458 1 11.669 0.77794 3.1118
459 1 11.669 0 3.8897
460 1 10.891 0.77794 3.8897
461 1 10.891 0 4.6676
462 1 11.669 0.77794 4.6676
463 1 11.669 0 5.4456
464 1 10.891 0.77794 5.4456
465 1 10.891 1.5559 0
466 1 11.669 2.3338 0
467 1 11.669 1.5559 0.77794
468 1 10.891 2.3338 0.77794
469 1 10.891 1.5559 1.5559
470 1 11.669 2.3338 1.5559
471 1 11.669 1.5559 2.3338
472 1 10.891 2.3338 2.3338
473 1 10.891 1.5559 3.1118
474 1 11.669 2.3338 3.1118
475 1 11.669 1.5559 3.8897
476 1 10.891 2.3338 3.8897
477 1 10.891 1.5559 4.6676
478 1 11.669 2.3338 4.6676
479 1 11.669 1.5559 5.4456
480 1 10.891 2.3338 5.4456
481 1 10.891 3.1118 0
482 1 11.669 3.8897 0
483 1 11.669 3.1118 0.77794
484 1 10.891 3.8897 0.77794
485 1 10.891 3.1118 1.5559
486 1 11.669 3.8897 1.5559
487 1 11.669 3.1118 2.3338
488 1 10.891 3.8897 2.3338
489 1 10.891 3.1118 3.1118
490 1 11.669 3.8897 3.1118
491 1 11.669 3.1118 3.8897
492 1 10.891 3.8897 3.8897
493 1 10.891 3.1118 4.6676
494 1 11.669 3.8897 4.6676
495 1 11.669 3.1118 5.4456
496 1 10.891 3.8897 5.4456
497 1 10.891 4.6676 0
498 1 11.669 5.4456 0
499 1 11.669 4.6676 0.77794
500 1 10.891 5.4456 0.77794
501 1 10.891 4.6676 1.5559
502 1 11.669 5.4456 1.5559
503 1 11.669 4.6676 2.3338
504 1 10.891 5.4456 2.3338
505 1 10.891 4.6676 3.1118
506 1 11.669 5.4456 3.1118
507 1 11.669 4.6676 3.8897
508 1 10.891 5.4456 3.8897
509 1 10.891 4.6676 4.6676
510 1 11.669 5.4456 4.6676
511 1 11.669 4.6676 5.4456
512 1 10.891 5.4456 5.4456
513 1 12.447 0 0
514 1 13.225 0.77794 0
515 1 13.225 0 0.77794
516 1 12.447 0.77794 0.77794
517 1 12.447 0 1.5559
518 1 13.225 0.77794 1.5559
519 1 13.225 0 2.3338
520 1 12.447 0.77794 2.3338
521 1 12.447 0 3.1118
522 1 13.225 0.77794 3.1118
523 1 13.225 0 3.8897
524 1 12.447 0.77794 3.8897
525 1 12.447 0 4.6676
526 1 13.225 0.77794 4.6676
527 1 13.225 0 5.4456
528 1 12.447 0.77794 5.4456
529 1 12.447 1.5559 0
530 1 13.225 2.3338 0
531 1 13.225 1.5559 0.77794
532 1 12.447 2.3338 0.77794
533 1 12.447 1.5559 1.5559
534 1 13.225 2.3338 1.5559
535 1 13.225 1.5559 2.3338
536 1 12.447 2.3338 2.3338
537 1 12.447 1.5559 3.1118
538 1 13.225 2.3338 3.1118
539 1 13.225 1.5559 3.8897
540 1 12.447 2.3338 3.8897
541 1 12.447 1.5559 4.6676
542 1 13.225 2.3338 4.6676
543 1 13.225 1.5559 5.4456
544 1 12.447 2.3338 5.4456
545 1 12.447 3.1118 0
546 1 13.225 3.8897 0
547 1 13.225 3.1118 0.77794
548 1 12.447 3.8897 0.77794
549 1 12.447 3.1118 1.5559
550 1 13.225 3.8897 1.5559
551 1 13.225 3.1118 2.3338
552 1 12.447 3.8897 2.3338
553 1 12.447 3.1118 3.1118
554 1 13.225 3.8897 3.1118
555 1 13.225 3.1118 3.8897
556 1 12.447 3.8897 3.8897
557 1 12.447 3.1118 4.6676
558 1 13.225 3.8897 4.6676
559 1 13.225 3.1118 5.4456
560 1 12.447 3.8897 5.4456
561 1 12.447 4.6676 0
562 1 13.225 5.4456 0
563 1 13.225 4.6676 0.77794
564 1 12.447 5.4456 0.77794
565 1 12.447 4.6676 1.5559
566 1 13.225 5.4456 1.5559
567 1 13.225 4.6676 2.3338
568 1 12.447 5.4456 2.3338
569 1 12.447 4.6676 3.1118
570 1 13.225 5.4456 3.1118
571 1 13.225 4.6676 3.8897
572 1 12.447 5.4456 3.8897
573 1 12.447 4.6676 4.6676
574 1 13.225 5.4456 4.6676
575 1 13.225 4.6676 5.4456
576 1 12.447 5.4456 5.4456
577 1 14.003 0 0
578 1 14.781 0.77794 0
579 1 14.781 0 0.77794
580 1 14.003 0.77794 0.77794
581 1 14.003 0 1.5559
582 1 14.781 0.77794 1.5559
583 1 14.781 0 2.3338
584 1 14.003 0.77794 2.3338
585 1 14.003 0 3.1118
586 1 14.781 0.77794 3.1118
587 1 14.781 0 3.8897
588 1 14.003 0.77794 3.8897
589 1 14.003 0 4.6676
590 1 14.781 0.77794 4.6676
591 1 14.781 0 5.4456
592 1 14.003 0.77794 5.4456
593 1 14.003 1.5559 0
594 1 14.781 2.3338 0
595 1 14.781 1.5559 0.77794
596 1 14.003 2.3338 0.77794
597 1 14.003 1.5559 1.5559
598 1 14.781 2.3338 1.5559
599 1 14.781 1.5559 2.3338
600 1 14.003 2.3338 2.3338
601 1 14.003 1.5559 3.1118
602 1 14.781 2.3338 3.1118
603 1 14.781 1.5559 3.8897
604 1 14.003 2.3338 3.8897
605 1 14.003 1.5559 4.6676
606 1 14.781 2.3338 4.6676
607 1 14.781 1.5559 5.4456
608 1 14.003 2.3338 5.4456
609 1 14.003 3.1118 0
610 1 14.781 3.8897 0
611 1 14.781 3.1118 0.77794
612 1 14.003 3.8897 0.77794
613 1 14.003 3.1118 1.5559
614 1 14.781 3.8897 1.5559
615 1 14.781 3.1118 2.3338
616 1 14.003 3.8897 2.3338
617 1 14.003 3.1118 3.1118
618 1 14.781 3.8897 3.1118
619 1 14.781 3.1118 3.8897
620 1 14.003 3.8897 3.8897
621 1 14.003 3.1118 4.6676
622 1 14.781 3.8897 4.6676
623 1 14.781 3.1118 5.4456
624 1 14.003 3.8897 5.4456
625 1 14.003 4.6676 0
626 1 14.781 5.4456 0
627 1 14.781 4.6676 0.77794
628 1 14.003 5.4456 0.77794
629 1 14.003 4.6676 1.5559
630 1 14.781 5.4456 1.5559
631 1 14.781 4.6676 2.3338
632 1 14.003 5.4456 2.3338
633 1 14.003 4.6676 3.1118
634 1 14.781 5.4456 3.1118
635 1 14.781 4.6676 3.8897
636 1 14.003 5.4456 3.8897
637 1 14.003 4.6676 4.6676
638 1 14.781 5.4456 4.6676
639 1 14.781 4.6676 5.4456
640 1 14.003 5.4456 5.4456
641 1 15.559 0 0
642 1 16.337 0.77794 0
643 1 16.337 0 0.77794
644 1 15.559 0.77794 0.77794
645 1 15.559 0 1.5559
646 1 16.337 0.77794 1.5559
647 1 16.337 0 2.3338
648 1 15.559 0.77794 2.3338
649 1 15.559 0 3.1118
650 1 16.337 0.77794 3.1118
651 1 16.337 0 3.8897
652 1 15.559 0.77794 3.8897
653 1 15.559 0 4.6676
654 1 16.337 0.77794 4.6676
655 1 16.337 0 5.4456
656 1 15.559 0.77794 5.4456
657 1 15.559 1.5559 0
658 1 16.337 2.3338 0
659 1 16.337 1.5559 0.77794
660 1 15.559 2.3338 0.77794
661 1 15.559 1.5559 1.5559
662 1 16.337 2.3338 1.5559
663 1 16.337 1.5559 2.3338
664 1 15.559 2.3338 2.3338
665 1 15.559 1.5559 3.1118
666 1 16.337 2.3338 3.1118
667 1 16.337 1.5559 3.8897
668 1 15.559 2.3338 3.8897
669 1 15.559 1.5559 4.6676
670 1 16.337 2.3338 4.6676
671 1 16.337 1.5559 5.4456
672 1 15.559 2.3338 5.4456
673 1 15.559 3.1118 0
674 1 16.337 3.8897 0
675 1 16.337 3.1118 0.77794
676 1 15.559 3.8897 0.77794
677 1 15.559 3.1118 1.5559
678 1 16.337 3.8897 1.5559
679 1 16.337 3.1118 2.3338
680 1 15.559 3.8897 2.3338
681 1 15.559 3.1118 3.1118
682 1 16.337 3.8897 3.1118
683 1 16.337 3.1118 3.8897
684 1 15.559 3.8897 3.8897
685 1 15.559 3.1118 4.6676
686 1 16.337 3.8897 4.6676
687 1 16.337 3.1118 5.4456
688 1 15.559 3.8897 5.4456
689 1 15.559 4.6676 0
690 1 16.337 5.4456 0
691 1 16.337 4.6676 0.77794
692 1 15.559 5.4456 0.77794
693 1 15.559 4.6676 1.5559
694 1 16.337 5.4456 1.5559
695 1 16.337 4.6676 2.3338
696 1 15.559 5.4456 2.3338
697 1 15.559 4.6676 3.1118
698 1 16.337 5.4456 3.1118
699 1 16.337 4.6676 3.8897
700 1 15.559 5.4456 3.8897
701 1 15.559 4.6676 4.6676
702 1 16.337 5.4456 4.6676
703 1 16.337 4.6676 5.4456
704 1 15.559 5.4456 5.4456
705 1 17.115 0 0
706 1 17.893 0.77794 0
707 1 17.893 0 0.77794
708 1 17.115 0.77794 0.77794
709 1 17.115 0 1.5559
710 1 17.893 0.77794 1.5559
711 1 17.893 0 2.3338
712 1 17.115 0.77794 2.3338
713 1 17.115 0 3.1118
714 1 17.893 0.77794 3.1118
715 1 17.893 0 3.8897
716 1 17.115 0.77794 3.8897
717 1 17.115 0 4.6676
718 1 17.893 0.77794 4.6676
719 1 17.893 0 5.4456
720 1 17.115 0.77794 5.4456
721 1 17.115 1.5559 0
722 1 17.893 2.3338 0
723 1 17.893 1.5559 0.77794
724 1 17.115 2.3338 0.77794
725 1 17.115 1.5559 1.5559
726 1 17.893 2.3338 1.5559
727 1 17.893 1.5559 2.3338
728 1 17.115 2.3338 2.3338
729 1 17.115 1.5559 3.1118
730 1 17.893 2.3338 3.1118
731 1 17.893 1.5559 3.8897
732 1 17.115 2.3338 3.8897
733 1 17.115 1.5559 4.6676
734 1 17.893 2.3338 4.6676
735 1 17.893 1.5559 5.4456
736 1 17.115 2.3338 5.4456
737 1 17.115 3.1118 0
738 1 17.893 3.8897 0
739 1 17.893 3.1118 0.77794
740 1 17.115 3.8897 0.77794
741 1 17.115 3.1118 1.5559
742 1 17.893 3.8897 1.5559
743 1 17.893 3.1118 2.3338
744 1 17.115 3.8897 2.3338
745 1 17.115 3.1118 3.1118
746 1 17.893 3.8897 3.1118
747 1 17.893 3.1118 3.8897
748 1 17.115 3.8897 3.8897
749 1 17.115 3.1118 4.6676
750 1 17.893 3.8897 4.6676
751 1 17.893 3.1118 5.4456
752 1 17.115 3.8897 5.4456
753 1 17.115 4.6676 0
754 1 17.893 5.4456 0
755 1 17.893 4.6676 0.77794
756 1 17.115 5.4456 0.77794
757 1 17.115 4.6676 1.5559
758 1 17.893 5.4456 1.5559
759 1 17.893 4.6676 2.3338
760 1 17.115 5.4456 2.3338
761 1 17.115 4.6676 3.1118
762 1 17.893 5.4456 3.1118
763 1 17.893 4.6676 3.8897
764 1 17.115 5.4456 3.8897
765 1 17.115 4.6676 4.6676
766 1 17.893 5.4456 4.6676
767 1 17.893 4.6676 5.4456
768 1 17.115 5.4456 5.4456
769 1 18.671 0 0
770 1 19.449 0.77794 0
771 1 19.449 0 0.77794
772 1 18.671 0.77794 0.77794
773 1 18.671 0 1.5559
774 1 19.449 0.77794 1.5559
775 1 19.449 0 2.3338
776 1 18.671 0.77794 2.3338
777 1 18.671 0 3.1118
778 1 19.449 0.77794 3.1118
779 1 19.449 0 3.8897
780 1 18.671 0.77794 3.8897
781 1 18.671 0 4.6676
782 1 19.449 0.77794 4.6676
783 1 19.449 0 5.4456
784 1 18.671 0.77794 5.4456
785 1 18.671 1.5559 0
786 1 19.449 2.3338 0
787 1 19.449 1.5559 0.77794
788 1 18.671 2.3338 0.77794
789 1 18.671 1.5559 1.5559
790 1 19.449 2.3338 1.5559
791 1 19.449 1.5559 2.3338
792 1 18.671 2.3338 2.3338
793 1 18.671 1.5559 3.1118
794 1 19.449 2.3338 3.1118
795 1 19.449 1.5559 3.8897
796 1 18.671 2.3338 3.8897
797 1 18.671 1.5559 4.6676
798 1 19.449 2.3338 4.6676
799 1 19.449 1.5559 5.4456
800 1 18.671 2.3338 5.4456
801 1 18.671 3.1118 0
802 1 19.449 3.8897 0
803 1 19.449 3.1118 0.77794
804 1 18.671 3.8897 0.77794
805 1 18.671 3.1118 1.5559
806 1 19.449 3.8897 1.5559
807 1 19.449 3.1118 2.3338
808 1 18.671 3.8897 2.3338
809 1 18.671 3.1118 3.1118
810 1 19.449 3.8897 3.1118
811 1 19.449 3.1118 3.8897
812 1 18.671 3.8897 3.8897
813 1 18.671 3.1118 4.6676
814 1 19.449 3.8897 4.6676
815 1 19.449 3.1118 5.4456
816 1 18.671 3.8897 5.4456
817 1 18.671 4.6676 0
818 1 19.449 5.4456 0
819 1 19.449 4.6676 0.77794
820 1 18.671 5.4456 0.77794
821 1 18.671 4.6676 1.5559
822 1 19.449 5.4456 1.5559
823 1 19.449 4.6676 2.3338
824 1 18.671 5.4456 2.3338
825 1 18.671 4.6676 3.1118
826 1 19.449 5.4456 3.1118
827 1 19.449 4.6676 3.8897
828 1 18.671 5.4456 3.8897
829 1 18.671 4.6676 4.6676
830 1 19.449 5.4456 4.6676
831 1 19.449 4.6676 5.4456
832 1 18.671 5.4456 5.4456
833 1 20.226 0 0
834 1 21.004 0.77794 0
835 1 21.004 0 0.77794
836 1 20.226 0.77794 0.77794
837 1 20.226 0 1.5559
838 1 21.004 0.77794 1.5559
839 1 21.004 0 2.3338
840 1 20.226 0.77794 2.3338
841 1 20.226 0 3.1118
842 1 21.004 0.77794 3.1118
843 1 21.004 0 3.8897
844 1 20.226 0.77794 3.8897
845 1 20.226 0 4.6676
846 1 21.004 0.77794 4.6676
847 1 21.004 0 5.4456
848 1 20.226 0.77794 5.4456
849 1 20.226 1.5559 0
850 1 21.004 2.3338 0
851 1 21.004 1.5559 0.77794
852 1 20.226 2.3338 0.77794
853 1 20.226 1.5559 1.5559
854 1 21.004 2.3338 1.5559
855 1 21.004 1.5559 2.3338
856 1 20.226 2.3338 2.3338
857 1 20.226 1.5559 3.1118
858 1 21.004 2.3338 3.1118
859 1 21.004 1.5559 3.8897
860 1 20.226 2.3338 3.8897
861 1 20.226 1.5559 4.6676
862 1 21.004 2.3338 4.6676
863 1 21.004 1.5559 5.4456
864 1 20.226 2.3338 5.4456
865 1 20.226 3.1118 0
866 1 21.004 3.8897 0
867 1 21.004 3.1118 0.77794
868 1 20.226 3.8897 0.77794
869 1 20.226 3.1118 1.5559
870 1 21.004 3.8897 1.5559
871 1 21.004 3.1118 2.3338
872 1 20.226 3.8897 2.3338
873 1 20.226 3.1118 3.1118
874 1 21.004 3.8897 3.1118
875 1 21.004 3.1118 3.8897
876 1 20.226 3.8897 3.8897
877 1 20.226 3.1118 4.6676
878 1 21.004 3.8897 4.6676
879 1 21.004 3.1118 5.4456
880 1 20.226 3.8897 5.4456
881 1 20.226 4.6676 0
882 1 21.004 5.4456 0
883 1 21.004 4.6676 0.77794
884 1 20.226 5.4456 0.77794
885 1 20.226 4.6676 1.5559
886 1 21.004 5.4456 1.5559
887 1 21.004 4.6676 2.3338
888 1 20.226 5.4456 2.3338
889 1 20.226 4.6676 3.1118
890 1 21.004 5.4456 3.1118
891 1 21.004 4.6676 3.8897
892 1 20.226 5.4456 3.8897
893 1 20.226 4.6676 4.6676
894 1 21.004 5.4456 4.6676
895 1 21.004 4.6676 5.4456
896 1 20.226 5.4456 5.4456
897 1 21.782 0 0
898 1 22.56 0.77794 0
899 1 22.56 0 0.77794
900 1 21.782 0.77794 0.77794
901 1 21.782 0 1.5559
902 1 22.56 0.77794 1.5559
903 1 22.56 0 2.3338
904 1 21.782 0.77794 2.3338
905 1 21.782 0 3.1118
906 1 22.56 0.77794 3.1118
907 1 22.56 0 3.8897
908 1 21.782 0.77794 3.8897
909 1 21.782 0 4.6676
910 1 22.56 0.77794 4.6676
911 1 22.56 0 5.4456
912 1 21.782 0.77794 5.4456
913 1 21.782 1.5559 0
914 1 22.56 2.3338 0
915 1 22.56 1.5559 0.77794
916 1 21.782 2.3338 0.77794
917 1 21.782 1.5559 1.5559
918 1 22.56 2.3338 1.5559
919 1 22.56 1.5559 2.3338
920 1 21.782 2.3338 2.3338
921 1 21.782 1.5559 3.1118
922 1 22.56 2.3338 3.1118
923 1 22.56 1.5559 3.8897
924 1 21.782 2.3338 3.8897
925 1 21.782 1.5559 4.6676
926 1 22.56 2.3338 4.6676
927 1 22.56 1.5559 5.4456
928 1 21.782 2.3338 5.4456
929 1 21.782 3.1118 0
930 1 22.56 3.8897 0
931 1 22.56 3.1118 0.77794
932 1 21.782 3.8897 0.77794
933 1 21.782 3.1118 1.5559
934 1 22.56 3.8897 1.5559
935 1 22.56 3.1118 2.3338
936 1 21.782 3.8897 2.3338
937 1 21.782 3.1118 3.1118
938 1 22.56 3.8897 3.1118
939 1 22.56 3.1118 3.8897
940 1 21.782 3.8897 3.8897
941 1 21.782 3.1118 4.6676
942 1 22.56 3.8897 4.6676
943 1 22.56 3.1118 5.4456
944 1 21.782 3.8897 5.4456
945 1 21.782 4.6676 0
946 1 22.56 5.4456 0
947 1 22.56 4.6676 0.77794
948 1 21.782 5.4456 0.77794
949 1 21.782 4.6676 1.5559
950 1 22.56 5.4456 1.5559
951 1 22.56 4.6676 2.3338
952 1 21.782 5.4456 2.3338
953 1 21.782 4.6676 3.1118
954 1 22.56 5.4456 3.1118
955 1 22.56 4.6676 3.8897
956 1 21.782 5.4456 3.8897
957 1 21.782 4.6676 4.6676
958 1 22.56 5.4456 4.6676
959 1 22.56 4.6676 5.4456
960 1 21.782 5.4456 5.4456
961 1 23.338 0 0
962 1 24.116 0.77794 0
963 1 24.116 0 0.77794
964 1 23.338 0.77794 0.77794
965 1 23.338 0 1.5559
966 1 24.116 0.77794 1.5559
967 1 24.116 0 2.3338
968 1 23.338 0.77794 2.3338
969 1 23.338 0 3.1118
970 1 24.116 0.77794 3.1118
971 1 24.116 0 3.8897
972 1 23.338 0.77794 3.8897
973 1 23.338 0 4.6676
974 1 24.116 0.77794 4.6676
975 1 24.116 0 5.4456
976 1 23.338 0.77794 5.4456
977 1 23.338 1.5559 0
978 1 24.116 2.3338 0
979 1 24.116 1.5559 0.77794
980 1 23.338 2.3338 0.77794
981 1 23.338 1.5559 1.5559
982 1 24.116 2.3338 1.5559
983 1 24.116 1.5559 2.3338
984 1 23.338 2.3338 2.3338
985 1 23.338 1.5559 3.1118
986 1 24.116 2.3338 3.1118
987 1 24.116 1.5559 3.8897
988 1 23.338 2.3338 3.8897
989 1 23.338 1.5559 4.6676
990 1 24.116 2.3338 4.6676
991 1 24.116 1.5559 5.4456
992 1 23.338 2.3338 5.4456
993 1 23.338 3.1118 0
994 1 24.116 3.8897 0
995 1 24.116 3.1118 0.77794
996 1 23.338 3.8897 0.77794
997 1 23.338 3.1118 1.5559
998 1 24.116 3.8897 1.5559
999 1 24.116 3.1118 2.3338
1000 1 23.338 3.8897 2.3338
1001 1 23.338 3.1118 3.1118
1002 1 24.116 3.8897 3.1118
1003 1 24.116 3.1118 3.8897
1004 1 23.338 3.8897 3.8897
1005 1 23.338 3.1118 4.6676
1006 1 24.116 3.8897 4.6676
1007 1 24.116 3.1118 5.4456
1008 1 23.338 3.8897 5.4456
1009 1 23.338 4.6676 0
1010 1 24.116 5.4456 0
1011 1 24.116 4.6676 0.77794
1012 1 23.338 5.4456 0.77794
1013 1 23.338 4.6676 1.5559
1014 1 24.116 5.4456 1.5559
1015 1 24.116 4.6676 2.3338
1016 1 23.338 5.4456 2.3338
1017 1 23.338 4.6676 3.1118
1018 1 24.116 5.4456 3.1118
1019 1 24.116 4.6676 3.8897
1020 1 23.338 5.4456 3.8897
1021 1 23.338 4.6676 4.6676
1022 1 24.116 5.4456 4.6676
1023 1 24.116 4.6676 5.4456
1024 1 23.338 5.4456 5.4456
1025 1 24.894 0 0
1026 1 25.672 0.77794 0
1027 1 25.672 0 0.77794
1028 1 24.894 0.77794 0.77794
1029 1 24.894 0 1.5559
1030 1 25.672 0.77794 1.5559
1031 1 25.672 0 2.3338
1032 1 24.894 0.77794 2.3338
1033 1 24.894 0 3.1118
1034 1 25.672 0.77794 3.1118
1035 1 25.672 0 3.8897
1036 1 24.894 0.77794 3.8897
1037 1 24.894 0 4.6676
1038 1 25.672 0.77794 4.6676
1039 1 25.672 0 5.4456
1040 1 24.894 0.77794 5.4456
1041 1 24.894 1.5559 0
1042 1 25.672 2.3338 0
1043 1 25.672 1.5559 0.77794
1044 1 24.894 2.3338 0.77794
1045 1 24.894 1.5559 1.5559
1046 1 25.672 2.3338 1.5559
1047 1 25.672 1.5559 2.3338
1048 1 24.894 2.3338 2.3338
1049 1 24.894 1.5559 3.1118
1050 1 25.672 2.3338 3.1118
1051 1 25.672 1.5559 3.8897
1052 1 24.894 2.3338 3.8897
1053 1 24.894 1.5559 4.6676
1054 1 25.672 2.3338 4.6676
1055 1 25.672 1.5559 5.4456
1056 1 24.894 2.3338 5.4456
1057 1 24.894 3.1118 0
1058 1 25.672 3.8897 0
1059 1 25.672 3.1118 0.77794
1060 1 24.894 3.8897 0.77794
1061 1 24.894 3.1118 1.5559
1062 1 25.672 3.8897 1.5559
1063 1 25.672 3.1118 2.3338
1064 1 24.894 3.8897 2.3338
1065 1 24.894 3.1118 3.1118
1066 1 25.672 3.8897 3.1118
1067 1 25.672 3.1118 3.8897
1068 1 24.894 3.8897 3.8897
1069 1 24.894 3.1118 4.6676
1070 1 25.672 3.8897 4.6676
1071 1 25.672 3.1118 5.4456
1072 1 24.894 3.8897 5.4456
1073 1 24.894 4.6676 0
1074 1 25.672 5.4456 0
1075 1 25.672 4.6676 0.77794
1076 1 24.894 5.4456 0.77794
1077 1 24.894 4.6676 1.5559
1078 1 25.672 5.4456 1.5559
1079 1 25.672 4.6676 2.3338
1080 1 24.894 5.4456 2.3338
1081 1 24.894 4.6676 3.1118
1082 1 25.672 5.4456 3.1118
1083 1 25.672 4.6676 3.8897
1084 1 24.894 5.4456 3.8897
1085 1 24.894 4.6676 4.6676
1086 1 25.672 5.4456 4.6676
1087 1 25.672 4.6676 5.4456
1088 1 24.894 5.4456 5.4456
1089 1 26.45 0 0
1090 1 27.228 0.77794 0
1091 1 27.228 0 0.77794
1092 1 26.45 0.77794 0.77794
1093 1 26.45 0 1.5559
1094 1 27.228 0.77794 1.5559
1095 1 27.228 0 2.3338
1096 1 26.45 0.77794 2.3338
1097 1 26.45 0 3.1118
1098 1 27.228 0.77794 3.1118
1099 1 27.228 0 3.8897
1100 1 26.45 0.77794 3.8897
1101 1 26.45 0 4.6676
1102 1 27.228 0.77794 4.6676
1103 1 27.228 0 5.4456
1104 1 26.45 0.77794 5.4456
1105 1 26.45 1.5559 0
1106 1 27.228 2.3338 0
1107 1 27.228 1.5559 0.77794
1108 1 26.45 2.3338 0.77794
1109 1 26.45 1.5559 1.5559
1110 1 27.228 2.3338 1.5559
1111 1 27.228 1.5559 2.3338
1112 1 26.45 2.3338 2.3338
1113 1 26.45 1.5559 3.1118
1114 1 27.228 2.3338 3.1118
1115 1 27.228 1.5559 3.8897
1116 1 26.45 2.3338 3.8897
1117 1 26.45 1.5559 4.6676
1118 1 27.228 2.3338 4.6676
1119 1 27.228 1.5559 5.4456
1120 1 26.45 2.3338 5.4456
1121 1 26.45 3.1118 0
1122 1 27.228 3.8897 0
1123 1 27.228 3.1118 0.77794
1124 1 26.45 3.8897 0.77794
1125 1 26.45 3.1118 1.5559
1126 1 27.228 3.8897 1.5559
1127 1 27.228 3.1118 2.3338
1128 1 26.45 3.8897 2.3338
1129 1 26.45 3.1118 3.1118
1130 1 27.228 3.8897 3.1118
1131 1 27.228 3.1118 3.8897
1132 1 26.45 3.8897 3.8897
1133 1 26.45 3.1118 4.6676
1134 1 27.228 3.8897 4.6676
1135 1 27.228 3.1118 5.4456
1136 1 26.45 3.8897 5.4456
1137 1 26.45 4.6676 0
1138 1 27.228 5.4456 0
1139 1 27.228 4.6676 0.77794
1140 1 26.45 5.4456 0.77794
1141 1 26.45 4.6676 1.5559
1142 1 27.228 5.4456 1.5559
1143 1 27.228 4.6676 2.3338
1144 1 26.45 5.4456 2.3338
1145 1 26.45 4.6676 3.1118
1146 1 27.228 5.4456 3.1118
1147 1 27.228 4.6676 3.8897
1148 1 26.45 5.4456 3.8897
1149 1 26.45 4.6676 4.6676
1150 1 27.228 5.4456 4.6676
1151 1 27.228 4.6676 5.4456