********************************************************************************
*                       GENERAL UTILITY LATTICE PROGRAM                        *
*                                 Julian Gale                                  *
*                      Nanochemistry Research Institute                        *
*                           Department of Chemistry                            *
*                    Curtin University, Western Australia                      *
********************************************************************************
* Version = 4.0.7 * Last modified =  14th December 2012                        *
********************************************************************************
*  optimise     - perform optimisation run                                     *
*  phonon       - calculate phonons for final geometry                         *
*  eigenvectors - output phonon eigenvectors                                   *
********************************************************************************

  Job Started  at 13:48.46 20th February   2013                               

  Number of CPUs =     1


  Total number of configurations input =   1

********************************************************************************
*  Input for Configuration =   1                                               *
********************************************************************************

  Formula = PbTe                                                        

  Number of irreducible atoms/shells =       2


  Total number atoms/shells =       2

  Dimensionality = 3               :  Bulk   



  Cartesian lattice vectors (Angstroms) :

        6.400000    0.000000    0.000000
        0.000000    6.400000    0.000000
        0.000000    0.000000    6.400000

  Cell parameters (Angstroms/Degrees):

  a =       6.4000    alpha =  90.0000
  b =       6.4000    beta  =  90.0000
  c =       6.4000    gamma =  90.0000

  Initial cell volume =         262.144000 Angs**3

  Temperature of configuration =  0.000     K 

  Pressure of configuration =         0.000 GPa 

  Fractional coordinates of asymmetric unit :

--------------------------------------------------------------------------------
   No.  Atomic       x           y          z         Charge      Occupancy
        Label      (Frac)      (Frac)     (Frac)        (e)         (Frac)  
--------------------------------------------------------------------------------
      1 Pb    c    0.000000    0.000000    0.000000     0.66600    1.000000    
      2 Te    c    0.500000    0.000000    0.000000    -0.66600    1.000000    
--------------------------------------------------------------------------------


  Brillouin zone sampling points :

--------------------------------------------------------------------------------
  Point number          x          y          z            Weight
--------------------------------------------------------------------------------
        1           0.000000   0.000000   0.000000         1.0000
--------------------------------------------------------------------------------


********************************************************************************
*  General input information                                                   *
********************************************************************************

  Species output for all configurations : 

--------------------------------------------------------------------------------
  Species    Type    Atomic    Atomic    Charge       Radii (Angs)     Library
                     Number     Mass       (e)     Cova   Ionic  VDW   Symbol
--------------------------------------------------------------------------------
    Pb       Core       82     207.20   0.666000   1.540  0.000  2.300          
    Te       Core       52     127.60  -0.666000   1.470  0.000  2.200          
--------------------------------------------------------------------------------


  Lattice summation method               =    Ewald          (3-D)
                                         =    Parry          (2-D)
                                         =    Saunders et al (1-D)
  Accuracy factor for lattice sums       =   12.000


  Time limit = Infinity

  Maximum range for interatomic potentials =    100000.000000 Angstroms

  General interatomic potentials :

--------------------------------------------------------------------------------
Atom  Types   Potential         A         B         C         D     Cutoffs(Ang)
  1     2                                                            Min    Max 
--------------------------------------------------------------------------------
Pb   c Pb   c Buckingham    0.842E+05 0.754E-01  61.0      0.00     0.000 16.000
Te   c Pb   c Buckingham    0.921E+05 0.255      586.      0.00     0.000 16.000
Te   c Te   c Buckingham    0.177E+07 0.257     0.610      0.00     0.000 16.000
Pb   c Pb   c Coulomb        0.00      0.00      0.00      1.00     0.000  1.000
Te   c Pb   c Coulomb        0.00      0.00      0.00      1.00     0.000  1.000
Te   c Te   c Coulomb        0.00      0.00      0.00      1.00     0.000  1.000
--------------------------------------------------------------------------------

********************************************************************************
*  Output for configuration   1                                                *
********************************************************************************


  Components of energy : 

--------------------------------------------------------------------------------
  Interatomic potentials     =          -0.48169673 eV
  Monopole - monopole (real) =          -0.70834623 eV
  Monopole - monopole (recip)=          -2.02749305 eV
  Monopole - monopole (total)=          -2.73583928 eV
--------------------------------------------------------------------------------
  Total lattice energy       =          -3.21753601 eV
--------------------------------------------------------------------------------
  Total lattice energy       =            -310.4430 kJ/(mole unit cells)
--------------------------------------------------------------------------------


  Number of variables =        3

  Maximum number of calculations  =          1000
  Maximum Hessian update interval =            10
  Maximum step size               =   1.000000000
  Maximum parameter tolerance     =   0.000010000
  Maximum function  tolerance     =   0.000010000
  Maximum gradient  tolerance     =   0.001000000
  Maximum gradient  component     =   0.010000000

  Symmetry not applied to optimisation

  Cell parameters to be optimised using strains

  Newton-Raphson optimiser to be used

  BFGS hessian update to be used

  Start of bulk optimisation :

  Cycle:      0 Energy:        -3.217536  Gnorm:      0.430742  CPU:    0.004
  ** Hessian calculated **
  Cycle:      1 Energy:        -3.233879  Gnorm:      0.019140  CPU:    0.004
  Cycle:      2 Energy:        -3.235283  Gnorm:      0.067035  CPU:    0.004
  Cycle:      3 Energy:        -3.235520  Gnorm:      0.032622  CPU:    0.004
  Cycle:      4 Energy:        -3.235585  Gnorm:      0.000524  CPU:    0.008

  XYZ File written as gulp.xyz                                



  **** Optimisation achieved ****


  Final energy =      -3.23558515 eV
  Final Gnorm  =       0.00017253

  Components of energy : 

--------------------------------------------------------------------------------
  Interatomic potentials     =          -0.46548961 eV
  Monopole - monopole (real) =          -0.60106529 eV
  Monopole - monopole (recip)=          -2.16903025 eV
  Monopole - monopole (total)=          -2.77009555 eV
--------------------------------------------------------------------------------
  Total lattice energy       =          -3.23558515 eV
--------------------------------------------------------------------------------
  Total lattice energy       =            -312.1845 kJ/(mole unit cells)
--------------------------------------------------------------------------------

  Final fractional coordinates of atoms :

--------------------------------------------------------------------------------
   No.  Atomic        x           y          z          Radius
        Label       (Frac)      (Frac)     (Frac)       (Angs) 
--------------------------------------------------------------------------------
     1  Pb    c     0.000000    0.000000    0.000000    0.000000
     2  Te    c     0.500000    0.000000    0.000000    0.000000
--------------------------------------------------------------------------------

  Final Cartesian lattice vectors (Angstroms) :

        6.248558    0.000000    0.000000
        0.000000    5.626302    0.000000
        0.000000    0.000000    5.626302


  Final cell parameters and derivatives :

--------------------------------------------------------------------------------
       a            6.248558 Angstrom     dE/de1(xx)    -0.000518 eV/strain
       b            5.626302 Angstrom     dE/de2(yy)    -0.000000 eV/strain
       c            5.626302 Angstrom     dE/de3(zz)    -0.000000 eV/strain
       alpha       90.000000 Degrees      dE/de4(yz)     0.000000 eV/strain
       beta        90.000000 Degrees      dE/de5(xz)     0.000000 eV/strain
       gamma       90.000000 Degrees      dE/de6(xy)     0.000000 eV/strain
--------------------------------------------------------------------------------

  Primitive cell volume =           197.799807 Angs**3

  Density of cell =      2.810707 g/cm**3

  Non-primitive cell volume =           197.799807 Angs**3


  Final internal derivatives :

--------------------------------------------------------------------------------
   No.  Atomic          a             b             c           Radius
        Label          (eV)          (eV)          (eV)        (eV/Angs)
--------------------------------------------------------------------------------
      1 Pb    c       0.000000      0.000000      0.000000      0.000000
      2 Te    c       0.000000      0.000000      0.000000      0.000000
--------------------------------------------------------------------------------
  Maximum abs         0.000000      0.000000      0.000000      0.000000
--------------------------------------------------------------------------------


  Born effective charge tensors : 

-------------------------------------------------------------------------------
  Atom             x           y             z
-------------------------------------------------------------------------------
   1 Pb    x       0.6660      0.0000      0.0000
           y       0.0000      0.6660      0.0000
           z       0.0000      0.0000      0.6660
-------------------------------------------------------------------------------
   2 Te    x      -0.6660      0.0000      0.0000
           y       0.0000     -0.6660      0.0000
           z       0.0000      0.0000     -0.6660
-------------------------------------------------------------------------------




  Elastic Constant Matrix: (Units=GPa)

-------------------------------------------------------------------------------
  Indices      1         2         3         4         5         6    
-------------------------------------------------------------------------------
       1     61.1154   -1.0258   -1.0258    0.0000    0.0000    0.0000
       2     -1.0258    0.3748   -0.0284    0.0000    0.0000    0.0000
       3     -1.0258   -0.0284    0.3748   -0.0000   -0.0000   -0.0000
       4      0.0000    0.0000   -0.0000   -0.0284    0.0000    0.0000
       5      0.0000    0.0000   -0.0000    0.0000   -1.0260    0.0000
       6      0.0000    0.0000   -0.0000    0.0000    0.0000   -1.0260
-------------------------------------------------------------------------------


  Elastic Compliance Matrix: (Units=1/GPa)

-------------------------------------------------------------------------------
  Indices      1         2         3         4         5         6    
-------------------------------------------------------------------------------
       1    0.018168  0.053798  0.053798  0.000000 -0.000000  0.000000
       2    0.053798  2.842685  0.362630  0.000000  0.000000  0.000000
       3    0.053798  0.362630  2.842685 -0.000000 -0.000000 -0.000000
       4    0.000000  0.000000 -0.000000-35.209779 -0.000000 -0.000000
       5   -0.000000  0.000000 -0.000000 -0.000000 -0.974685 -0.000000
       6    0.000000  0.000000 -0.000000 -0.000000 -0.000000 -0.974685
-------------------------------------------------------------------------------

  Mechanical properties :

-------------------------------------------------------------------------------
  Convention :                    Reuss         Voigt         Hill
-------------------------------------------------------------------------------
  Bulk  Modulus (GPa)     =       0.15051       6.41168       3.28110
  Shear Modulus (GPa)     =      -0.16566       3.84692       1.84063
-------------------------------------------------------------------------------
  Velocity S-wave (km/s)  =      -0.24278       1.16990       0.80924
  Velocity P-wave (km/s)  =       0.15823       2.02634       1.42846
-------------------------------------------------------------------------------
  Compressibility (1/GPa) =    6.64399092
-------------------------------------------------------------------------------
  Stress axis :                     x             y             z
-------------------------------------------------------------------------------
  Youngs Moduli (GPa)     =      55.04062       0.35178       0.35178
-------------------------------------------------------------------------------
  Poissons Ratio (x)      =                    -0.01893      -0.01893
  Poissons Ratio (y)      =      -2.96108                    -0.12757
  Poissons Ratio (z)      =      -2.96108      -0.12757
-------------------------------------------------------------------------------


  Piezoelectric Strain Matrix: (Units=C/m**2)

-------------------------------------------------------------------------------
  Indices      1         2         3         4         5         6    
-------------------------------------------------------------------------------
       x    -0.00000  -0.00000  -0.00000   0.00000   0.00000  -0.00000
       y    -0.00000  -0.00000   0.00000  -0.00000  -0.00000   0.00000
       z    -0.00000   0.00000  -0.00000   0.00000   0.00000  -0.00000
-------------------------------------------------------------------------------


  Piezoelectric Stress Matrix: (Units=10**-11 C/N)

-------------------------------------------------------------------------------
  Indices      1         2         3         4         5         6    
-------------------------------------------------------------------------------
       x    -0.00000  -0.00000  -0.00000  -0.00000  -0.00000   0.00000
       y    -0.00000  -0.00000   0.00000   0.00000   0.00000  -0.00000
       z    -0.00000  -0.00000  -0.00000  -0.00000  -0.00000   0.00000
-------------------------------------------------------------------------------


  Static dielectric constant tensor : 

-------------------------------------------------------------------------------
              x         y         z
-------------------------------------------------------------------------------
       x     1.05560   0.00000  -0.00000
       y     0.00000  -2.73200  -0.00000
       z    -0.00000  -0.00000  -2.73200
--------------------------------------------------------------------------------

  Static refractive indices : 

-------------------------------------------------------------------------------
    1 =   -1.65288      2 =   -1.65288      3 =    1.02742
-------------------------------------------------------------------------------


  Phonon Calculation : 

  K direction for n-a correction at gamma =  1.00000  1.00000  1.00000

  Number of k points for this configuration =        1

--------------------------------------------------------------------------------
  K point      1 =   0.000000  0.000000  0.000000  Weight =    1.000
--------------------------------------------------------------------------------

 Frequencies (cm-1) and Eigenvectors : 

 Frequency     -19.3497   -0.0000   -0.0000    0.0000   24.5717  159.8425
 IR Intensity    0.0056    0.0056    0.0000    0.0000    0.0000    0.0056
    in X         0.0000    0.0000    0.0000    0.0000    0.0000    0.0056
    in Y         0.0000    0.0056    0.0000    0.0000    0.0000    0.0000
    in Z         0.0056    0.0000    0.0000    0.0000    0.0000    0.0000
 Raman Intsty    0.0000    0.0000    0.0000    0.0000    0.0000    0.0000

     1 x      -0.000000 -0.000000  0.000000 -0.005627 -0.786667 -0.617352
     1 y      -0.000000  0.617352  0.000000 -0.786667  0.005627  0.000000
     1 z      -0.617352 -0.000000  0.786687 -0.000000  0.000000  0.000000
     2 x       0.000000 -0.000000  0.000000 -0.004416 -0.617336  0.786687
     2 y       0.000000 -0.786687 -0.000000 -0.617336  0.004416 -0.000000
     2 z       0.786687 -0.000000  0.617352 -0.000000  0.000000 -0.000000




--------------------------------------------------------------------------------
  Phonon properties (per mole of unit cells): Temperature =      0.000 K
--------------------------------------------------------------------------------
  Zero point energy            =        0.011432 eV
--------------------------------------------------------------------------------

  Phonon density of states : 

--------------------------------------------------------------------------------
 Frequency (cm-1) Density of States                                             
--------------------------------------------------------------------------------
    0.00000 |************************************************************  0.333
    2.49754 |                                                              0.000
    4.99508 |                                                              0.000
    7.49262 |                                                              0.000
    9.99016 |                                                              0.000
   12.48770 |                                                              0.000
   14.98524 |                                                              0.000
   17.48278 |                                                              0.000
   19.98033 |                                                              0.000
   22.47787 |************************************************************  0.333
   24.97541 |                                                              0.000
   27.47295 |                                                              0.000
   29.97049 |                                                              0.000
   32.46803 |                                                              0.000
   34.96557 |                                                              0.000
   37.46311 |                                                              0.000
   39.96065 |                                                              0.000
   42.45819 |                                                              0.000
   44.95573 |                                                              0.000
   47.45327 |                                                              0.000
   49.95081 |                                                              0.000
   52.44835 |                                                              0.000
   54.94590 |                                                              0.000
   57.44344 |                                                              0.000
   59.94098 |                                                              0.000
   62.43852 |                                                              0.000
   64.93606 |                                                              0.000
   67.43360 |                                                              0.000
   69.93114 |                                                              0.000
   72.42868 |                                                              0.000
   74.92622 |                                                              0.000
   77.42376 |                                                              0.000
   79.92130 |                                                              0.000
   82.41884 |                                                              0.000
   84.91638 |                                                              0.000
   87.41392 |                                                              0.000
   89.91147 |                                                              0.000
   92.40901 |                                                              0.000
   94.90655 |                                                              0.000
   97.40409 |                                                              0.000
   99.90163 |                                                              0.000
  102.39917 |                                                              0.000
  104.89671 |                                                              0.000
  107.39425 |                                                              0.000
  109.89179 |                                                              0.000
  112.38933 |                                                              0.000
  114.88687 |                                                              0.000
  117.38441 |                                                              0.000
  119.88195 |                                                              0.000
  122.37949 |                                                              0.000
  124.87704 |                                                              0.000
  127.37458 |                                                              0.000
  129.87212 |                                                              0.000
  132.36966 |                                                              0.000
  134.86720 |                                                              0.000
  137.36474 |                                                              0.000
  139.86228 |                                                              0.000
  142.35982 |                                                              0.000
  144.85736 |                                                              0.000
  147.35490 |                                                              0.000
  149.85244 |                                                              0.000
  152.34998 |                                                              0.000
  154.84752 |                                                              0.000
  157.34506 |************************************************************  0.333
--------------------------------------------------------------------------------



  Time to end of optimisation =       0.0080 seconds


  Peak dynamic memory used =       0.46 MB 


  Timing analysis for GULP :

--------------------------------------------------------------------------------
  Task / Subroutine                                          Time (Seconds)
--------------------------------------------------------------------------------
  Calculation of reciprocal space energy and derivatives          0.0040
--------------------------------------------------------------------------------
  Total CPU time                                                  0.0080
--------------------------------------------------------------------------------


  Job Finished at 13:48.46 20th February   2013                               

