  LAMMPS description
 
     400   atoms
     168   bonds
     312   angles
     316   dihedrals
 
      12   atom types
      14   bond types
      26   angle types
      27   dihedral types
 
       0   13.757000     xlo xhi
       0   16.634000     ylo yhi
       0   18.401740     zlo zhi
  0.0000000     -5.0306945      0.0000000     xy xz yz

  Masses

       1   12.010000
       2   12.010000
       3   12.010000
       4   12.010000
       5   16.000000
       6   16.000000
       7   12.010000
       8   12.010000
       9   12.010000
      10   1.0100000
      11   1.0100000
      12   35.450000

   Atoms

       1       1       1    0.000000    0.993000    3.067000    7.215000
       2       1       1    0.000000    0.639965    2.268982    6.086245
       3       1       1    0.000000   -0.606859    1.419367    6.190298
       4       1       1    0.000000   -1.368230    1.310965    7.396074
       5       1       1    0.000000   -0.952746    2.075445    8.590018
       6       1       1    0.000000    0.174781    2.953959    8.473281
       7       1       1    0.000000    0.036129    4.342159    8.960381
       8       1       1    0.000000    0.822053    5.299936    8.167979
       9       1       1    0.000000    1.347214    4.514550    7.016559
      10       1       1    0.000000    1.344233    5.105877    5.699562
      11       1       1    0.000000    0.907837    4.277218    4.542628
      12       1       1    0.000000    0.547211    2.901065    4.722663
      13       1       1    0.000000   -0.650152    2.366475    4.005414
      14       1       1    0.000000   -1.372077    1.462620    4.912875
      15       1       1    0.000000   -2.805559    1.312294    4.845953
      16       1       1    0.000000   -3.567495    1.223892    6.109528
      17       1       1    0.000000   -2.852595    1.249884    7.339118
      18       1       1    0.000000   -3.372152    2.011040    8.491916
      19       1       1    0.000000   -2.208679    2.533608    9.238973
      20       1       1    0.000000   -2.292594    3.844596    9.759714
      21       1       1    0.000000   -1.178295    4.757785    9.581895
      22       1       1    0.000000   -1.643201    6.145316    9.540196
      23       1       1    0.000000   -0.932941    7.039747    8.676651
      24       1       1    0.000000    0.325730    6.634885    7.995041
      25       1       1    0.000000    0.298645    7.222278    6.626280
      26       1       1    0.000000    0.809010    6.487683    5.504783
      27       1       1    0.000000    0.011488    6.472882    4.252295
      28       1       1    0.000000    0.069571    5.119732    3.674634
      29       1       1    0.000000   -1.037291    4.592840    2.941570
      30       1       1    0.000000   -1.422041    3.170998    3.100355
      31       1       1    0.000000   -2.904241    3.066104    3.068556
      32       1       1    0.000000   -3.608120    2.137797    3.899484
      33       1       1    0.000000   -4.856897    2.588638    4.602956
      34       1       1    0.000000   -4.814549    2.014940    5.974804
      35       1       1    0.000000   -5.286981    2.780108    7.079439
      36       1       1    0.000000   -4.576077    2.752298    8.383362
      37       1       1    0.000000   -4.673839    4.096713    8.994838
      38       1       1    0.000000   -3.523858    4.636954    9.654748
      39       1       1    0.000000   -3.130595    6.051602    9.532556
      40       1       1    0.000000   -3.869630    6.837219    8.600717
      41       1       1    0.000000   -3.147125    7.724307    7.676669
      42       1       1    0.000000   -1.729243    7.812286    7.705120
      43       1       1    0.000000   -0.978022    7.954555    6.472647
      44       1       1    0.000000   -1.686944    7.996936    5.233504
      45       1       1    0.000000   -1.172243    7.241584    4.090170
      46       1       1    0.000000   -2.339554    6.677710    3.380007
      47       1       1    0.000000   -2.262621    5.380710    2.818231
      48       1       1    0.000000   -3.379930    4.459605    2.999024
      49       1       1    0.000000   -4.590974    4.878849    3.627109
      50       1       1    0.000000   -5.351506    3.922453    4.440580
      51       1       1    0.000000   -5.866229    4.714597    5.597350
      52       1       1    0.000000   -5.862398    4.135081    6.899853
      53       1       1    0.000000   -5.443137    4.940593    8.067120
      54       1       1    0.000000   -5.013631    6.289489    7.864944
      55       1       1    0.000000   -5.061180    6.916560    6.524420
      56       1       1    0.000000   -5.483850    6.142397    5.400485
      57       1       1    0.000000   -4.711744    6.248773    4.133623
      58       1       1    0.000000   -3.581421    7.117761    4.035599
      59       1       1    0.000000   -3.149752    7.907400    5.207914
      60       1       1    0.000000   -3.886893    7.808632    6.424028
      61       2       1    0.000000    2.971990   11.378647    2.008873
      62       2       1    0.000000    3.384373   10.537081    3.092662
      63       2       1    0.000000    4.625571    9.712805    2.913452
      64       2       1    0.000000    5.334077    9.647750    1.679031
      65       2       1    0.000000    4.886296   10.456616    0.522269
      66       2       1    0.000000    3.774576   11.352112    0.724433
      67       2       1    0.000000    3.934789   12.760574    0.307055
      68       2       1    0.000000    3.197171   13.687203    1.176629
      69       2       1    0.000000    2.674723   12.842887    2.303769
      70       2       1    0.000000    2.758004   13.380604    3.644204
      71       2       1    0.000000    3.211410   12.492685    4.749315
      72       2       1    0.000000    3.514179   11.109636    4.496160
      73       2       1    0.000000    4.735483   10.543057    5.157440
      74       2       1    0.000000    5.417896    9.698665    4.167963
      75       2       1    0.000000    6.845301    9.533161    4.173974
      76       2       1    0.000000    7.562485    9.477024    2.886900
      77       2       1    0.000000    6.810996    9.583166    1.690792
      78       2       1    0.000000    7.311908   10.370193    0.553791
      79       2       1    0.000000    6.134050   10.921696   -0.148927
      80       2       1    0.000000    6.233965   12.260108   -0.599333
      81       2       1    0.000000    5.141719   13.183756   -0.327013
      82       2       1    0.000000    5.646878   14.550641   -0.231955
      83       2       1    0.000000    4.982451   15.424212    0.687888
      84       2       1    0.000000    3.727893   15.010951    1.386493
      85       2       1    0.000000    3.817225   15.542266    2.783211
      86       2       1    0.000000    3.344883   14.742279    3.879230
      87       2       1    0.000000    4.198977   14.633316    5.088662
      88       2       1    0.000000    4.106566   13.277069    5.630125
      89       2       1    0.000000    5.226323   12.708893    6.314092
      90       2       1    0.000000    5.554369   11.284164    6.083305
      91       2       1    0.000000    7.040451   11.167785    6.044775
      92       2       1    0.000000    7.684816   10.297968    5.118789
      93       2       1    0.000000    8.907000   10.760354    4.392045
      94       2       1    0.000000    8.820072   10.239167    3.010331
      95       2       1    0.000000    9.279238   11.037060    1.928328
      96       2       1    0.000000    8.539785   11.070585    0.649285
      97       2       1    0.000000    8.643944   12.438716    0.109766
      98       2       1    0.000000    7.485519   13.024093   -0.497368
      99       2       1    0.000000    7.134398   14.436567   -0.287759
     100       2       1    0.000000    7.927632   15.166723    0.648705
     101       2       1    0.000000    7.260976   16.040345    1.628800
     102       2       1    0.000000    5.840709   16.149470    1.647465
     103       2       1    0.000000    5.137338   16.201346    2.912059
     104       2       1    0.000000    5.909785   16.127145    4.105490
     105       2       1    0.000000    5.414949   15.345816    5.229275
     106       2       1    0.000000    6.581619   14.787745    5.928499
     107       2       1    0.000000    6.479367   13.466816    6.431616
     108       2       1    0.000000    7.570894   12.532325    6.165539
     109       2       1    0.000000    8.773232   12.961270    5.518917
     110       2       1    0.000000    9.481722   12.045354    4.621792
     111       2       1    0.000000    9.997105   12.871559    3.489269
     112       2       1    0.000000    9.912037   12.357883    2.159255
     113       2       1    0.000000    9.471117   13.222150    1.040355
     114       2       1    0.000000    9.088130   14.570255    1.317285
     115       2       1    0.000000    9.202415   15.130507    2.685145
     116       2       1    0.000000    9.638903   14.297243    3.763090
     117       2       1    0.000000    8.911285   14.352988    5.064562
     118       2       1    0.000000    7.813524   15.249763    5.252432
     119       2       1    0.000000    7.365200   16.077745    4.106159
     120       2       1    0.000000    8.054965   16.041324    2.860770
     121       3       1    0.000000    7.413858   14.136184   11.257403
     122       3       1    0.000000    7.798075   14.980807   12.346194
     123       3       1    0.000000    8.961358   15.908089   12.152247
     124       3       1    0.000000    9.638392   16.034585   10.898034
     125       3       1    0.000000    9.212205   15.210333    9.740386
     126       3       1    0.000000    8.160271   14.250344    9.953138
     127       3       1    0.000000    8.360434   12.855219    9.499999
     128       3       1    0.000000    7.689818   11.874647   10.367747
     129       3       1    0.000000    7.171386   12.665718   11.526608
     130       3       1    0.000000    7.304864   12.109186   12.855016
     131       3       1    0.000000    7.745342   12.990571   13.965794
     132       3       1    0.000000    7.987915   14.383082   13.721289
     133       3       1    0.000000    9.175479   15.011104   14.373627
     134       3       1    0.000000    9.780425   15.929684   13.391984
     135       3       1    0.000000   11.198855   16.152156   13.367058
     136       3       1    0.000000   11.887348   16.259744   12.066758
     137       3       1    0.000000   11.113065   16.148836   10.883983
     138       3       1    0.000000   11.628311   15.398799    9.731040
     139       3       1    0.000000   10.464418   14.807167    9.042646
     140       3       1    0.000000   10.612518   13.480767    8.575319
     141       3       1    0.000000    9.570259   12.498592    8.832421
     142       3       1    0.000000   10.143813   11.157050    8.896895
     143       3       1    0.000000    9.549132   10.245346    9.823889
     144       3       1    0.000000    8.295889   10.582499   10.550976
     145       3       1    0.000000    8.453673   10.044370   11.930644
     146       3       1    0.000000    7.966503   10.784660   13.057298
     147       3       1    0.000000    8.827500   10.890178   14.268344
     148       3       1    0.000000    8.682149   12.238273   14.830599
     149       3       1    0.000000    9.775882   12.853987   15.514352
     150       3       1    0.000000   10.035133   14.295486   15.280649
     151       3       1    0.000000   11.507800   14.479908   15.196739
     152       3       1    0.000000   12.083448   15.388491   14.267559
     153       3       1    0.000000   13.310983   15.005246   13.509220
     154       3       1    0.000000   13.190641   15.566093   12.145043
     155       3       1    0.000000   13.680758   14.827311   11.035503
     156       3       1    0.000000   12.899419   14.769420    9.779465
     157       3       1    0.000000   13.038413   13.407821    9.233940
     158       3       1    0.000000   11.894052   12.775767    8.655089
     159       3       1    0.000000   11.619858   11.342079    8.822608
     160       3       1    0.000000   12.476788   10.630373    9.714408
     161       3       1    0.000000   11.873237    9.719452   10.698371
     162       3       1    0.000000   10.462638    9.549051   10.751843
     163       3       1    0.000000    9.794161    9.429389   12.027353
     164       3       1    0.000000   10.570400    9.482728   13.218248
     165       3       1    0.000000   10.075393   10.217621   14.378165
     166       3       1    0.000000   11.227558   10.831034   15.068374
     167       3       1    0.000000   11.069501   12.150691   15.575558
     168       3       1    0.000000   12.106589   13.146402   15.288306
     169       3       1    0.000000   13.322341   12.799981   14.625058
     170       3       1    0.000000   13.952137   13.754183   13.712161
     171       3       1    0.000000   14.502188   12.984538   12.562175
     172       3       1    0.000000   14.356929   13.516172   11.244997
     173       3       1    0.000000   13.921383   12.652512   10.126190
     174       3       1    0.000000   13.607142   11.286735   10.384164
     175       3       1    0.000000   13.772583   10.721666   11.740203
     176       3       1    0.000000   14.212094   11.542034   12.821941
     177       3       1    0.000000   13.508936   11.431612   14.131269
     178       3       1    0.000000   12.452512   10.494342   14.314297
     179       3       1    0.000000   12.008909    9.688521   13.164189
     180       3       1    0.000000   12.675283    9.763790   11.915256
     181       4       1    0.000000    5.357364    5.789366   16.408210
     182       4       1    0.000000    4.965343    6.631965   15.318378
     183       4       1    0.000000    3.810881    7.557718   15.502029
     184       4       1    0.000000    3.126403    7.674589   16.748307
     185       4       1    0.000000    3.544212    6.849578   17.910130
     186       4       1    0.000000    4.601298    5.892904   17.707489
     187       4       1    0.000000    4.394144    4.493924   18.150057
     188       4       1    0.000000    5.074441    3.524404   17.279736
     189       4       1    0.000000    5.600175    4.323586   16.131015
     190       4       1    0.000000    5.495839    3.774897   14.799062
     191       4       1    0.000000    5.072192    4.661922   13.686098
     192       4       1    0.000000    4.810095    6.048809   13.937947
     193       4       1    0.000000    3.635429    6.680706   13.270180
     194       4       1    0.000000    3.014981    7.594047   14.245864
     195       4       1    0.000000    1.596812    7.820951   14.250001
     196       4       1    0.000000    0.897001    7.915005   15.545932
     197       4       1    0.000000    1.654384    7.786703   16.736849
     198       4       1    0.000000    1.137594    7.021829   17.875558
     199       4       1    0.000000    2.286227    6.434255   18.591022
     200       4       1    0.000000    2.136001    5.108754   19.064601
     201       4       1    0.000000    3.186533    4.128520   18.822804
     202       4       1    0.000000    2.612583    2.789318   18.740959
     203       4       1    0.000000    3.221345    1.891778   17.805667
     204       4       1    0.000000    4.484847    2.225805   17.091297
     205       4       1    0.000000    4.360938    1.684362   15.703354
     206       4       1    0.000000    4.853694    2.441336   14.585595
     207       4       1    0.000000    4.004464    2.569126   13.368034
     208       4       1    0.000000    4.153759    3.914472   12.798793
     209       4       1    0.000000    3.065123    4.533443   12.107395
     210       4       1    0.000000    2.792653    5.974301   12.340180
     211       4       1    0.000000    1.317514    6.164201   12.397687
     212       4       1    0.000000    0.725717    7.067801   13.325375
     213       4       1    0.000000   -0.506625    6.672564   14.074145
     214       4       1    0.000000   -0.401391    7.219157   15.446062
     215       4       1    0.000000   -0.891899    6.464135   16.544533
     216       4       1    0.000000   -0.124762    6.390140   17.804061
     217       4       1    0.000000   -0.269656    5.033936   18.352173
     218       4       1    0.000000    0.856355    4.401086   18.964976
     219       4       1    0.000000    1.128032    2.965007   18.804823
     220       4       1    0.000000    0.287289    2.258769   17.889746
     221       4       1    0.000000    0.909725    1.357568   16.904843
     222       4       1    0.000000    2.322655    1.197459   16.864502
     223       4       1    0.000000    3.013237    1.085193   15.598276
     224       4       1    0.000000    2.247312    1.174576   14.405658
     225       4       1    0.000000    2.752817    1.912119   13.258079
     226       4       1    0.000000    1.612916    2.519251   12.546976
     227       4       1    0.000000    1.772148    3.834157   12.031955
     228       4       1    0.000000    0.727220    4.825647   12.300068
     229       4       1    0.000000   -0.491997    4.468368   12.955153
     230       4       1    0.000000   -1.137529    5.416302   13.862231
     231       4       1    0.000000   -1.697557    4.637406   15.003579
     232       4       1    0.000000   -1.566426    5.156479   16.325641
     233       4       1    0.000000   -1.144956    4.286743   17.446932
     234       4       1    0.000000   -0.825425    2.923718   17.192337
     235       4       1    0.000000   -0.973085    2.373834   15.829715
     236       4       1    0.000000   -1.400962    3.196780   14.745233
     237       4       1    0.000000   -0.682328    3.099496   13.444951
     238       4       1    0.000000    0.382570    2.170797   13.281027
     239       4       1    0.000000    0.812671    1.366598   14.436343
     240       4       1    0.000000    0.129382    1.423364   15.674455
     241       1       2   -0.030000    2.046089    2.062502    6.761332
     242       1       3    0.000000    2.190037    0.911234    7.782866
     243       1       4   -0.115000    2.310816    1.145938    9.160509
     244       1       4   -0.115000    2.756059    0.109355    9.983854
     245       1       4   -0.115000    2.951946   -1.167682    9.497155
     246       1       4   -0.115000    2.527232   -1.455185    8.233741
     247       1       5   -0.500000    3.314788    4.573704    3.015636
     248       1       6   -0.170000    5.298967    4.957447    3.793765
     249       1       4   -0.115000    2.073559   -0.429898    7.399206
     250       1       7   -0.120000    3.217599    2.928494    6.174185
     251       1       7   -0.120000    4.379959    2.363419    5.373327
     252       1       7   -0.120000    4.562728    2.838112    3.918974
     253       1       8    0.700000    4.220876    4.272810    3.772430
     254       1       9   -0.180000    5.195531    6.291993    3.493953
     255       1      10    0.115000    2.308611    2.150076    9.551946
     256       1      10    0.115000    3.066628    0.267450   10.985318
     257       1      10    0.115000    3.294414   -1.958933   10.119957
     258       1      10    0.115000    2.561007   -2.492092    7.974333
     259       1      10    0.115000    1.784239   -0.688473    6.391604
     260       1      11    0.060000    2.797191    3.743313    5.587511
     261       1      11    0.060000    3.633510    3.432236    7.026010
     262       1      11    0.060000    4.106476    1.329460    5.424726
     263       1      11    0.060000    5.352650    2.486486    5.847000
     264       1      11    0.060000    5.592534    2.669168    3.582276
     265       1      11    0.060000    3.915626    2.312992    3.211778
     266       1      11    0.060000    4.652259    6.483712    2.590653
     267       1      11    0.060000    4.745441    6.810816    4.328743
     268       1      11    0.060000    6.171363    6.682072    3.253508
     269       2       2   -0.030000    2.023235   10.209153    2.393706
     270       2       3    0.000000    1.948028    9.077717    1.342733
     271       2       4   -0.115000    1.782208    9.295044   -0.040049
     272       2       4   -0.115000    1.281176    8.263093   -0.848779
     273       2       4   -0.115000    1.071230    7.013998   -0.294825
     274       2       4   -0.115000    1.567690    6.735330    0.943344
     275       2       5   -0.500000    0.799483   13.189207    6.092221
     276       2       6   -0.170000   -1.262420   13.302917    5.472429
     277       2       4   -0.115000    2.083718    7.749199    1.739906
     278       2       7   -0.120000    0.767282   10.622237    3.221623
     279       2       7   -0.120000    0.950619   10.665044    4.746303
     280       2       7   -0.120000   -0.264293   11.240452    5.485640
     281       2       8    0.700000   -0.131659   12.711321    5.482771
     282       2       9   -0.180000   -1.162376   14.651989    5.727890
     283       2      10    0.115000    1.769584   10.295831   -0.438617
     284       2      10    0.115000    0.948813    8.371968   -1.862256
     285       2      10    0.115000    0.694591    6.191935   -0.840205
     286       2      10    0.115000    1.537401    5.706728    1.226141
     287       2      10    0.115000    2.381183    7.487640    2.743121
     288       2      11    0.060000    0.351258   11.561716    2.853547
     289       2      11    0.060000   -0.006351    9.887121    3.061433
     290       2      11    0.060000    1.814416   11.264917    5.026163
     291       2      11    0.060000    1.197082    9.670553    5.096442
     292       2      11    0.060000   -1.246229   10.969676    5.089260
     293       2      11    0.060000   -0.200049   10.919223    6.526436
     294       2      11    0.060000   -0.519178   14.858854    6.566536
     295       2      11    0.060000   -0.790420   15.152990    4.850183
     296       2      11    0.060000   -2.113616   15.061610    6.029279
     297       3       2   -0.030000    6.385973   15.183498   11.717767
     298       3       3    0.000000    6.309588   16.398398   10.740755
     299       3       4   -0.115000    6.400147   16.242250    9.341931
     300       3       4   -0.115000    6.011496   17.288555    8.488434
     301       3       4   -0.115000    5.746309   18.547599    8.994452
     302       3       4   -0.115000    5.983126   18.775421   10.316788
     303       3       5   -0.500000    5.105952   12.707369   15.405879
     304       3       6   -0.170000    3.110553   12.350339   14.718550
     305       3       4   -0.115000    6.350408   17.733042   11.177739
     306       3       7   -0.120000    5.237513   14.414860   12.469968
     307       3       7   -0.120000    4.127254   15.083833   13.265022
     308       3       7   -0.120000    3.844948   14.497371   14.660744
     309       3       8    0.700000    4.175085   13.052008   14.708320
     310       3       9   -0.180000    3.300840   11.023326   15.025762
     311       3      10    0.115000    6.555064   15.260048    8.930619
     312       3      10    0.115000    5.919347   17.211972    7.429680
     313       3      10    0.115000    5.506302   19.386376    8.380217
     314       3      10    0.115000    5.888793   19.804951   10.581857
     315       3      10    0.115000    6.541431   17.991115   12.209468
     316       3      11    0.060000    5.723242   13.738941   13.171771
     317       3      11    0.060000    4.766873   13.743922   11.774124
     318       3      11    0.060000    4.506666   16.086176   13.364454
     319       3      11    0.060000    3.170108   15.122361   12.741842
     320       3      11    0.060000    2.807845   14.652584   14.965728
     321       3      11    0.060000    4.440569   14.974400   15.443255
     322       3      11    0.060000    3.923438   10.878179   15.891368
     323       3      11    0.060000    3.698664   10.503490   14.162324
     324       3      11    0.060000    2.355195   10.607729   15.328765
     325       4       2   -0.030000    6.365813    6.852198   15.931737
     326       4       3    0.000000    6.461910    8.094359   16.881252
     327       4       4   -0.115000    6.337022    7.969133   18.277750
     328       4       4   -0.115000    6.790632    9.003927   19.111342
     329       4       4   -0.115000    7.135701   10.247525   18.626114
     330       4       4   -0.115000    6.848036   10.474507   17.307875
     331       4       5   -0.500000    7.643607    4.340944   12.282999
     332       4       6   -0.170000    9.677763    4.081330   12.866471
     333       4       4   -0.115000    6.460717    9.432621   16.447184
     334       4       7   -0.120000    7.466298    6.173810   15.047500
     335       4       7   -0.120000    7.897654    6.956998   13.836856
     336       4       7   -0.120000    8.848135    6.224709   12.876297
     337       4       8    0.700000    8.598488    4.760505   12.893902
     338       4       9   -0.180000    9.482728    2.744897   12.576016
     339       4      10    0.115000    6.101046    7.012394   18.709161
     340       4      10    0.115000    6.847961    8.965279   20.170328
     341       4      10    0.115000    7.436482   11.032908   19.297253
     342       4      10    0.115000    6.949288   11.495839   17.019350
     343       4      10    0.115000    6.266708    9.695056   15.417087
     344       4      11    0.060000    7.046563    5.236280   14.686152
     345       4      11    0.060000    8.371541    5.841738   15.524391
     346       4      11    0.060000    7.063354    7.376378   13.272044
     347       4      11    0.060000    8.388337    7.780044   14.309169
     348       4      11    0.060000    9.894861    6.424167   13.091260
     349       4      11    0.060000    8.665823    6.576924   11.857765
     350       4      11    0.060000    8.901424    2.588087   11.680323
     351       4      11    0.060000    9.029768    2.231787   13.413408
     352       4      11    0.060000   10.434169    2.311528   12.325199
     353       5      12    0.115000    4.194331    5.905920    6.827175
     354       5      12    0.115000    4.146922    4.823147    9.142839
     355       5       4   -0.115000    4.683626    6.339577    7.688156
     356       5       4   -0.115000    4.695896    5.739069    8.952988
     357       5       4   -0.115000    5.540648    6.275701    9.941593
     358       5       4   -0.115000    6.075246    7.559548    9.837006
     359       5       4   -0.115000    5.943931    8.241119    8.614474
     360       5       4   -0.115000    5.291754    7.588172    7.551855
     361       5      10    0.115000    5.674188    5.786487   10.883901
     362       5      10    0.115000    6.618188    7.961804   10.676396
     363       5      10    0.115000    6.383932    9.219569    8.469420
     364       5      10    0.115000    5.259083    8.035488    6.588952
     365       6      12    0.115000    4.393375   11.294955   11.633240
     366       6      12    0.115000    4.334176   12.505727    9.381100
     367       6       4   -0.115000    3.864605   10.918726   10.769255
     368       6       4   -0.115000    3.794063   11.579002    9.538941
     369       6       4   -0.115000    2.926265   11.061640    8.557777
     370       6       4   -0.115000    2.461239    9.751893    8.604271
     371       6       4   -0.115000    2.601296    9.040547    9.807542
     372       6       4   -0.115000    3.280000    9.659421   10.871074
     373       6      10    0.115000    2.708167   11.575127    7.642690
     374       6      10    0.115000    1.913589    9.400037    7.748786
     375       6      10    0.115000    2.197233    8.046545    9.939272
     376       6      10    0.115000    3.377481    9.181853   11.812666
     377       7      12    0.115000   13.626353   14.141586    2.432740
     378       7      12    0.115000   13.722492   13.101371    0.134457
     379       7       4   -0.115000   13.153681   14.605545    1.577030
     380       7       4   -0.115000   13.164516   14.015406    0.310774
     381       7       4   -0.115000   12.332101   14.564629   -0.680627
     382       7       4   -0.115000   11.797624   15.851157   -0.578521
     383       7       4   -0.115000   11.924830   16.534055    0.642340
     384       7       4   -0.115000   12.600513   15.884914    1.690878
     385       7      10    0.115000   12.207139   14.075880   -1.623496
     386       7      10    0.115000   11.261892   16.261618   -1.419108
     387       7      10    0.115000   11.504514   17.522773    0.787295
     388       7      10    0.115000   12.656560   16.359370    2.636075
     389       8      12    0.115000   -5.303673    3.193841   15.937840
     390       8      12    0.115000   -5.445042    4.118205   18.288844
     391       8       4   -0.115000   -4.835648    2.706617   16.782833
     392       8       4   -0.115000   -4.854394    3.235784   18.071512
     393       8       4   -0.115000   -3.954253    2.701507   19.011384
     394       8       4   -0.115000   -3.464271    1.403412   18.897900
     395       8       4   -0.115000   -3.611804    0.751157   17.666165
     396       8       4   -0.115000   -4.300881    1.426824   16.638192
     397       8      10    0.115000   -3.772395    3.165935   19.960936
     398       8      10    0.115000   -2.900644    0.994261   19.719529
     399       8      10    0.115000   -3.184316   -0.232127   17.521971
     400       8      10    0.115000   -4.373549    1.011162   15.667674

   Bonds

       1       1     244     243
       2       1     245     244
       3       1     246     245
       4       1     249     246
       5       1     272     271