400
Atoms. Timestep: 0
1 0.993 3.067 7.215
1 0.639965 2.26898 6.08624
1 -0.606859 1.41937 6.1903
1 -1.36823 1.31096 7.39607
1 -0.952746 2.07545 8.59002
1 0.174781 2.95396 8.47328
1 0.036129 4.34216 8.96038
1 0.822053 5.29994 8.16798
1 1.34721 4.51455 7.01656
1 1.34423 5.10588 5.69956
1 0.907837 4.27722 4.54263
1 0.547211 2.90107 4.72266
1 -0.650152 2.36647 4.00541
1 12.3849 1.46262 4.91288
1 10.9514 1.31229 4.84595
1 10.1895 1.22389 6.10953
1 10.9044 1.24988 7.33912
1 10.3848 2.01104 8.49192
1 -2.20868 2.53361 9.23897
1 -2.29259 3.8446 9.75971
1 -1.1783 4.75779 9.58189
1 -1.6432 6.14532 9.5402
1 -0.932941 7.03975 8.67665
1 0.32573 6.63488 7.99504
1 0.298645 7.22228 6.62628
1 0.80901 6.48768 5.50478
1 0.011488 6.47288 4.2523
1 0.069571 5.11973 3.67463
1 12.7197 4.59284 2.94157
1 12.335 3.171 3.10035
1 10.8528 3.0661 3.06856
1 10.1489 2.1378 3.89948
1 8.9001 2.58864 4.60296
1 8.94245 2.01494 5.9748
1 8.47002 2.78011 7.07944
1 9.18092 2.7523 8.38336
1 9.08316 4.09671 8.99484
1 10.2331 4.63695 9.65475
1 10.6264 6.0516 9.53256
1 9.88737 6.83722 8.60072
1 10.6099 7.72431 7.67667
1 -1.72924 7.81229 7.70512
1 -0.978022 7.95456 6.47265
1 12.0701 7.99694 5.2335
1 12.5848 7.24158 4.09017
1 11.4174 6.67771 3.38001
1 11.4944 5.38071 2.81823
1 10.3771 4.4596 2.99902
1 9.16603 4.87885 3.62711
1 8.40549 3.92245 4.44058
1 7.89077 4.7146 5.59735
1 7.8946 4.13508 6.89985
1 8.31386 4.94059 8.06712
1 8.74337 6.28949 7.86494
1 8.69582 6.91656 6.52442
1 8.27315 6.1424 5.40048
1 9.04526 6.24877 4.13362
1 10.1756 7.11776 4.0356
1 10.6072 7.9074 5.20791
1 9.87011 7.80863 6.42403
1 2.97199 11.3786 2.00887
1 3.38437 10.5371 3.09266
1 4.62557 9.7128 2.91345
1 5.33408 9.64775 1.67903
1 4.8863 10.4566 0.522269
1 3.77458 11.3521 0.724433
1 3.93479 12.7606 0.307055
1 3.19717 13.6872 1.17663
1 2.67472 12.8429 2.30377
1 2.758 13.3806 3.6442
1 3.21141 12.4927 4.74932
1 3.51418 11.1096 4.49616
1 4.73548 10.5431 5.15744
1 5.4179 9.69867 4.16796
1 6.8453 9.53316 4.17397
1 7.56248 9.47702 2.8869
1 6.811 9.58317 1.69079
1 7.31191 10.3702 0.553791
1 1.10336 10.9217 18.2528
1 1.20327 12.2601 17.8024
1 0.111024 13.1838 18.0747
1 0.616183 14.5506 18.1698
1 4.98245 15.4242 0.687888
1 3.72789 15.011 1.38649
1 3.81722 15.5423 2.78321
1 3.34488 14.7423 3.87923
1 4.19898 14.6333 5.08866
1 4.10657 13.2771 5.63012
1 5.22632 12.7089 6.31409
1 5.55437 11.2842 6.08331
1 7.04045 11.1678 6.04477
1 7.68482 10.298 5.11879
1 8.907 10.7604 4.39205
1 8.82007 10.2392 3.01033
1 9.27924 11.0371 1.92833
1 8.53979 11.0706 0.649285
1 8.64394 12.4387 0.109766
1 2.45482 13.0241 17.9044
1 2.1037 14.4366 18.114
1 7.92763 15.1667 0.648705
1 7.26098 16.0403 1.6288
1 5.84071 16.1495 1.64746
1 5.13734 16.2013 2.91206
1 5.90979 16.1271 4.10549
1 5.41495 15.3458 5.22928
1 6.58162 14.7877 5.9285
1 6.47937 13.4668 6.43162
1 7.57089 12.5323 6.16554
1 8.77323 12.9613 5.51892
1 9.48172 12.0454 4.62179
1 9.9971 12.8716 3.48927
1 9.91204 12.3579 2.15925
1 9.47112 13.2221 1.04035
1 9.08813 14.5703 1.31729
1 9.20242 15.1305 2.68514
1 9.6389 14.2972 3.76309
1 8.91128 14.353 5.06456
1 7.81352 15.2498 5.25243
1 7.3652 16.0777 4.10616
1 8.05496 16.0413 2.86077
1 7.41386 14.1362 11.2574
1 7.79807 14.9808 12.3462
1 8.96136 15.9081 12.1522
1 9.63839 16.0346 10.898
1 9.21221 15.2103 9.74039
1 8.16027 14.2503 9.95314
1 8.36043 12.8552 9.5
1 7.68982 11.8746 10.3677
1 7.17139 12.6657 11.5266
1 7.30486 12.1092 12.855
1 7.74534 12.9906 13.9658
1 7.98792 14.3831 13.7213
1 9.17548 15.0111 14.3736
1 9.78042 15.9297 13.392
1 -2.55815 16.1522 13.3671
1 -1.86965 16.2597 12.0668
1 -2.64394 16.1488 10.884
1 -2.12869 15.3988 9.73104
1 10.4644 14.8072 9.04265
1 10.6125 13.4808 8.57532
1 9.57026 12.4986 8.83242
1 10.1438 11.157 8.8969
1 9.54913 10.2453 9.82389
1 8.29589 10.5825 10.551
1 8.45367 10.0444 11.9306
1 7.9665 10.7847 13.0573
1 8.8275 10.8902 14.2683
1 8.68215 12.2383 14.8306
1 -3.98112 12.854 15.5144
1 -3.72187 14.2955 15.2806
1 -2.2492 14.4799 15.1967
1 -1.67355 15.3885 14.2676
1 -0.446017 15.0052 13.5092
1 -0.566359 15.5661 12.145
1 -0.076242 14.8273 11.0355
1 -0.857581 14.7694 9.77947
1 -0.718587 13.4078 9.23394
1 -1.86295 12.7758 8.65509
1 -2.13714 11.3421 8.82261
1 -1.28021 10.6304 9.71441
1 -1.88376 9.71945 10.6984
1 10.4626 9.54905 10.7518
1 9.79416 9.42939 12.0274
1 -3.1866 9.48273 13.2182
1 -3.68161 10.2176 14.3782
1 -2.52944 10.831 15.0684
1 -2.6875 12.1507 15.5756
1 -1.65041 13.1464 15.2883
1 -0.434659 12.8 14.6251
1 0.195137 13.7542 13.7122
1 0.745188 12.9845 12.5622
1 0.599929 13.5162 11.245
1 0.164383 12.6525 10.1262
1 -0.149858 11.2867 10.3842
1 0.015583 10.7217 11.7402
1 0.455094 11.542 12.8219
1 -0.248064 11.4316 14.1313
1 -1.30449 10.4943 14.3143
1 -1.74809 9.68852 13.1642
1 -1.08172 9.76379 11.9153
1 5.35736 5.78937 16.4082
1 4.96534 6.63197 15.3184
1 3.81088 7.55772 15.502
1 3.1264 7.67459 16.7483
1 3.54421 6.84958 17.9101
1 4.6013 5.8929 17.7075
1 4.39414 4.49392 18.1501
1 5.07444 3.5244 17.2797
1 5.60018 4.32359 16.131
1 5.49584 3.7749 14.7991
1 5.07219 4.66192 13.6861
1 4.81009 6.04881 13.9379
1 3.63543 6.68071 13.2702
1 3.01498 7.59405 14.2459
1 1.59681 7.82095 14.25
1 0.897001 7.915 15.5459
1 1.65438 7.7867 16.7368
1 1.13759 7.02183 17.8756
1 7.31692 6.43426 0.189282
1 7.1667 5.10875 0.662861
1 8.21723 4.12852 0.421064
1 7.64328 2.78932 0.339219
1 3.22134 1.89178 17.8057
1 4.48485 2.2258 17.0913
1 4.36094 1.68436 15.7034
1 4.85369 2.44134 14.5856
1 4.00446 2.56913 13.368
1 4.15376 3.91447 12.7988
1 3.06512 4.53344 12.1074
1 2.79265 5.9743 12.3402
1 1.31751 6.1642 12.3977
1 0.725717 7.0678 13.3254
1 -0.506625 6.67256 14.0741
1 -0.401391 7.21916 15.4461
1 -0.891899 6.46413 16.5445
1 -0.124762 6.39014 17.8041
1 -0.269656 5.03394 18.3522
1 5.88705 4.40109 0.563236
1 6.15873 2.96501 0.403083
1 0.287289 2.25877 17.8897
1 0.909725 1.35757 16.9048
1 2.32266 1.19746 16.8645
1 3.01324 1.08519 15.5983
1 2.24731 1.17458 14.4057
1 2.75282 1.91212 13.2581
1 1.61292 2.51925 12.547
1 1.77215 3.83416 12.032
1 0.72722 4.82565 12.3001
1 -0.491997 4.46837 12.9552
1 -1.13753 5.4163 13.8622
1 -1.69756 4.63741 15.0036
1 -1.56643 5.15648 16.3256
1 -1.14496 4.28674 17.4469
1 -0.825425 2.92372 17.1923
1 -0.973085 2.37383 15.8297
1 -1.40096 3.19678 14.7452
1 -0.682328 3.0995 13.445
1 0.38257 2.1708 13.281
1 0.812671 1.3666 14.4363
1 0.129382 1.42336 15.6745
2 2.04609 2.0625 6.76133
3 2.19004 0.911234 7.78287
4 2.31082 1.14594 9.16051
4 2.75606 0.109355 9.98385
4 2.95195 15.4663 9.49715
4 2.52723 15.1788 8.23374
5 3.31479 4.5737 3.01564
6 5.29897 4.95745 3.79377
4 2.07356 16.2041 7.39921
7 3.2176 2.92849 6.17418
7 4.37996 2.36342 5.37333
7 4.56273 2.83811 3.91897
8 4.22088 4.27281 3.77243
9 5.19553 6.29199 3.49395
10 2.30861 2.15008 9.55195
10 3.06663 0.26745 10.9853
10 3.29441 14.6751 10.12
10 2.56101 14.1419 7.97433
10 1.78424 15.9455 6.3916
11 2.79719 3.74331 5.58751
11 3.63351 3.43224 7.02601
11 4.10648 1.32946 5.42473
11 5.35265 2.48649 5.847
11 5.59253 2.66917 3.58228
11 3.91563 2.31299 3.21178
11 4.65226 6.48371 2.59065
11 4.74544 6.81082 4.32874
11 6.17136 6.68207 3.25351
2 2.02324 10.2092 2.39371
3 1.94803 9.07772 1.34273
4 -3.24849 9.29504 18.3617
4 -3.74952 8.26309 17.553
4 -3.95946 7.014 18.1069
4 1.56769 6.73533 0.943344
5 0.799483 13.1892 6.09222
6 -1.26242 13.3029 5.47243
4 2.08372 7.7492 1.73991
7 0.767282 10.6222 3.22162
7 0.950619 10.665 4.7463
7 -0.264293 11.2405 5.48564
8 -0.131659 12.7113 5.48277
9 -1.16238 14.652 5.72789
10 -3.26111 10.2958 17.9631
10 -4.08188 8.37197 16.5395
10 -4.3361 6.19193 17.5615
10 1.5374 5.70673 1.22614
10 2.38118 7.48764 2.74312
11 0.351258 11.5617 2.85355
11 -0.006351 9.88712 3.06143
11 1.81442 11.2649 5.02616
11 1.19708 9.67055 5.09644
11 -1.24623 10.9697 5.08926
11 -0.200049 10.9192 6.52644
11 -0.519178 14.8589 6.56654
11 -0.79042 15.153 4.85018
11 11.6434 15.0616 6.02928
2 6.38597 15.1835 11.7178
3 6.30959 16.3984 10.7408
4 6.40015 16.2422 9.34193
4 6.0115 0.654555 8.48843
4 5.74631 1.9136 8.99445
4 5.98313 2.14142 10.3168
5 5.10595 12.7074 15.4059
6 3.11055 12.3503 14.7186
4 6.35041 1.09904 11.1777
7 5.23751 14.4149 12.47
7 4.12725 15.0838 13.265
7 3.84495 14.4974 14.6607
8 4.17509 13.052 14.7083
9 3.30084 11.0233 15.0258
10 6.55506 15.26 8.93062
10 5.91935 0.577972 7.42968
10 5.5063 2.75238 8.38022
10 5.88879 3.17095 10.5819
10 6.54143 1.35711 12.2095
11 5.72324 13.7389 13.1718
11 4.76687 13.7439 11.7741
11 4.50667 16.0862 13.3645
11 3.17011 15.1224 12.7418
11 2.80784 14.6526 14.9657
11 4.44057 14.9744 15.4433
11 3.92344 10.8782 15.8914
11 3.69866 10.5035 14.1623
11 2.3552 10.6077 15.3288
2 6.36581 6.8522 15.9317
3 6.46191 8.09436 16.8813
4 6.33702 7.96913 18.2778
4 11.8213 9.00393 0.709602
4 12.1664 10.2475 0.224374
4 6.84804 10.4745 17.3079
5 7.64361 4.34094 12.283
6 9.67776 4.08133 12.8665
4 6.46072 9.43262 16.4472
7 7.4663 6.17381 15.0475
7 7.89765 6.957 13.8369
7 8.84813 6.22471 12.8763
8 8.59849 4.7605 12.8939
9 9.48273 2.7449 12.576
10 11.1317 7.01239 0.307421
10 11.8787 8.96528 1.76859
10 12.4672 11.0329 0.895513
10 6.94929 11.4958 17.0193
10 6.26671 9.69506 15.4171
11 7.04656 5.23628 14.6862
11 8.37154 5.84174 15.5244
11 7.06335 7.37638 13.272
11 8.38834 7.78004 14.3092
11 9.89486 6.42417 13.0913
11 8.66582 6.57692 11.8578
11 8.90142 2.58809 11.6803
11 9.02977 2.23179 13.4134
11 -3.32283 2.31153 12.3252
12 4.19433 5.90592 6.82718
12 4.14692 4.82315 9.14284
4 4.68363 6.33958 7.68816
4 4.6959 5.73907 8.95299
4 5.54065 6.2757 9.94159
4 6.07525 7.55955 9.83701
4 5.94393 8.24112 8.61447
4 5.29175 7.58817 7.55185
10 5.67419 5.78649 10.8839
10 6.61819 7.9618 10.6764
10 6.38393 9.21957 8.46942
10 5.25908 8.03549 6.58895
12 4.39337 11.295 11.6332
12 4.33418 12.5057 9.3811
4 3.86461 10.9187 10.7693
4 3.79406 11.579 9.53894
4 2.92626 11.0616 8.55778
4 2.46124 9.75189 8.60427
4 2.6013 9.04055 9.80754
4 3.28 9.65942 10.8711
10 2.70817 11.5751 7.64269
10 1.91359 9.40004 7.74879
10 2.19723 8.04655 9.93927
10 3.37748 9.18185 11.8127
12 -0.130647 14.1416 2.43274
12 -0.034508 13.1014 0.134457
4 13.1537 14.6055 1.57703
4 13.1645 14.0154 0.310774
4 7.30141 14.5646 17.7211
4 6.76693 15.8512 17.8232
4 11.9248 16.5341 0.64234
4 12.6005 15.8849 1.69088
10 7.17644 14.0759 16.7782
10 6.2312 16.2616 16.9826
10 11.5045 0.888773 0.787295
10 12.6566 16.3594 2.63607
12 8.45333 3.19384 15.9378
12 8.31196 4.1182 18.2888
4 8.92135 2.70662 16.7828
4 -4.85439 3.23578 18.0715
4 1.07644 2.70151 0.609644
4 1.56642 1.40341 0.49616
4 -3.6118 0.751157 17.6662
4 -4.30088 1.42682 16.6382
10 1.2583 3.16594 1.5592
10 2.13005 0.994261 1.31779
10 -3.18432 16.4019 17.522
10 9.38345 1.01116 15.6677
400
Atoms. Timestep: 1
1 22.2848 8.81979 30.6495
1 9.70232 -24.5706 -13.81
1 21.8708 -9.63438 -9.51603
1 -7.17585 -18.8835 24.7051
1 -4.02055 -20.5793 26.3225
1 28.0326 -0.276597 15.5287
1 23.2509 -2.91244 16.184
1 26.4232 -1.31696 18.3545
1 18.5935 -4.2601 21.5357
1 20.7214 13.9671 -8.27438
1 24.7229 14.6062 -4.6005
1 9.74364 -23.4165 0.993309
1 20.0165 -13.3047 -1.41985
1 24.7592 -15.0539 3.22418
1 -1.11274 -18.223 -6.85067
1 -7.80898 -19.0281 -9.99003
1 19.6035 -16.7412 27.1397
1 20.7594 -22.3583 22.7281
1 1.3287 -31.8408 17.7733
1 -7.6705 13.1321 39.8447
1 -1.92733 10.9635 28.8172
1 -8.77575 12.4565 39.277
1 16.7733 29.0716 15.0948
1 9.98735 32.2935 15.7682
1 10.74 28.2095 20.9001
1 25.056 8.36711 -10.3225
1 28.4631 8.2511 -2.22512
1 21.8557 12.3511 -4.30344
1 13.1058 -4.32205 -24.2358
1 8.8444 1.40339 -23.5888
1 16.0361 1.12824 -25.723
1 -8.71045 -22.5311 1.69779
1 2.94087 -24.6688 -5.46264
1 0.70557 -21.9461 -10.5513
1 -12.1924 3.09975 25.4398
1 -22.4859 2.25689 18.0403
1 -15.2852 -5.5888 21.7625
1 10.8389 10.0002 33.4252
1 17.7266 8.15955 41.7216
1 -6.58988 28.8262 14.7147
1 -7.19924 23.6217 18.7866
1 13.2746 25.2624 22.579
1 18.7737 27.0638 12.0139
1 10.0499 31.5881 -9.84699
1 5.75077 30.8144 -16.0051
1 11.7066 37.224 -5.30004
1 12.5983 -2.6505 -28.8121
1 13.6192 -3.2383 -17.0923
1 -13.633 9.27217 -6.49152
1 -18.1024 11.6878 -3.72955
1 -10.1315 13.4325 -16.7815
1 -13.971 -6.47615 25.736
1 -16.4533 -5.06912 19.2259
1 -3.85193 27.1571 11.6284
1 -3.65955 28.8788 20.1533
1 -15.6216 4.35669 -13.2613
1 -19.161 11.9369 -5.73329
1 11.4555 31.4554 -10.4197
1 10.8169 27.405 -14.6182
1 -11.7939 26.7688 15.2465
1 -20.0523 19.44 -19.7633
1 -6.95147 -12.5933 23.147
1 -16.5584 -2.72838 19.4971
1 8.65514 -9.34421 -19.8498
1 5.63604 -9.83004 -18.154
1 -22.7554 7.58637 -3.98645
1 -18.8363 6.3542 -7.32548
1 -22.7093 9.21003 -4.5785
1 -13.8725 2.9361 -13.9596
1 -14.8306 23.2952 17.6713
1 -17.4292 22.8022 16.4656
1 -7.09335 -15.7734 5.18106
1 -16.1005 -3.02559 12.0158
1 -8.73663 -6.01905 6.4529
1 18.8536 -12.3017 13.0405
1 26.157 -14.0104 18.9887
1 -2.86865 -6.75501 -19.6172
1 -4.18676 -11.7889 -15.1838
1 -4.70793 -22.8552 7.46233
1 5.19758 23.1739 -11.1133
1 0.464759 17.9221 -0.35936
1 8.29945 22.7263 -10.7771
1 -13.6384 37.8848 -2.36998
1 -5.39897 39.5597 -4.79403
1 -7.74999 38.1462 -10.5085
1 -20.1828 14.9725 19.358
1 -25.3569 18.4259 11.0024
1 -18.9659 15.7116 14.6705
1 7.32215 5.18162 33.3267
1 9.45812 5.78437 31.7212
1 -0.759284 8.10601 37.5896
1 27.8302 -14.3069 5.60399
1 13.0443 -16.7095 12.8119
1 17.998 -15.3574 17.6324
1 30.5786 13.0366 -16.7553
1 39.7155 8.34534 -11.9135
1 31.6622 5.0943 -13.9851
1 1.2031 17.8169 -6.07454
1 -6.22409 19.888 -12.37
1 23.5553 36.3187 -5.47221
1 25.0237 32.8758 -7.13926
1 -7.30171 35.3542 -14.1089
1 -16.744 35.2639 -1.76628
1 8.80817 36.7788 18.2714
1 13.025 36.4312 25.6622
1 11.6478 44.8188 17.7526
1 4.20339 3.07678 37.092
1 6.90728 6.10957 25.2327
1 30.1282 17.9091 16.7148
1 39.1943 20.2713 12.3555
1 30.25 20.3844 24.758
1 30.3723 3.13802 -16.8845
1 33.8966 2.06776 -11.2743
1 22.2071 36.5305 -1.36428
1 22.8365 36.0277 -10.2459
1 32.9235 10.9119 21.7801
1 37.4904 17.0851 13.1527
1 5.5864 40.1796 21.655
1 12.079 34.0602 26.9676
1 28.0372 35.9654 -9.12832
1 -15.4372 5.65866 -9.59626
1 -3.08132 38.1684 32.1415
1 -11.0849 28.1004 27.2952
1 9.83245 35.8317 -8.69196
1 8.77545 37.1753 -7.93638
1 -17.8632 15.8054 4.3722
1 -15.8598 18.8991 3.08152
1 -18.7193 15.5734 3.06701
1 -10.8948 21.1926 -2.66248
1 -10.958 2.02808 26.0622
1 -12.1386 0.449538 26.8938
1 -3.8956 40.1919 15.3619
1 -9.86377 29.1628 20.7259
1 -6.97036 30.5235 17.2634
1 8.99476 39.0839 21.8914
1 16.1321 39.0562 27.9455
1 -13.6886 32.9139 -8.83946
1 -13.332 35.8102 -4.91915
1 2.87925 48.8422 -1.56596
1 13.3393 3.51923 -20.5468
1 9.47936 7.51553 -10.4709
1 16.919 4.25116 -21.446
1 -6.99669 -13.7428 6.80241
1 -0.985398 -14.1702 3.46847
1 -1.87355 -12.8492 -1.35304
1 -13.7254 8.594 31.6418
1 -18.8033 5.52715 20.6067
1 -13.9051 6.88801 23.3651
1 -0.558876 20.6493 44.0382
1 -0.933977 18.2926 41.698
1 -9.39969 17.1466 47.6196
1 17.3333 40.8819 13.8124
1 1.12331 44.5682 20.9822
1 6.84129 41.7866 27.509
1 23.097 13.4511 -9.35662
1 29.4869 20.6398 -3.29963
1 21.2941 23.3687 -5.81898
1 -3.40546 7.1755 -14.4506
1 -10.6016 6.10488 -21.7806
1 17.277 -9.9213 2.13527
1 16.4482 -7.17109 -0.859475
1 -2.76687 -9.49208 -5.59284
1 -10.7254 -10.4368 7.8002
1 -0.732176 -14.3145 29.5858
1 5.07021 -10.3597 34.2394
1 2.13367 -18.5598 28.6514
1 -4.57634 21.3284 44.1067
1 -4.64909 16.8563 34.9113
1 23.2791 9.64794 26.6437
1 30.9444 4.93842 21.4148
1 23.103 5.81584 32.4733
1 18.8615 25.9657 -7.85264
1 25.0536 25.4664 -1.93345
1 12.3489 -11.361 6.02031
1 15.1964 -8.43025 -2.13824
1 25.432 16.0434 31.5758
1 30.692 10.3368 21.1934
1 -3.01933 -13.8281 31.6032
1 1.61367 -6.8602 35.0366
1 20.484 -10.207 -1.10107
1 28.3398 -1.33359 36.9211
1 17.0816 27.9546 -2.8269
1 22.7014 21.108 -1.15494
1 2.75607 27.0793 38.7249
1 3.57297 29.0927 35.4407
1 30.6539 7.07561 23.9654
1 26.7981 10.8504 25.0287
1 31.2265 7.26393 24.4399
1 23.1912 12.6631 31.0244
1 23.7115 -6.60661 0.832856
1 25.7841 -7.93623 1.03791
1 16.5347 31.5377 11.9967
1 22.436 20.7394 7.09767
1 19.9078 22.3936 11.1427
1 -10.2606 30.7341 5.53556
1 -16.4151 31.4827 -0.793276
1 11.832 24.7299 36.1693
1 14.7695 28.1086 33.3258
1 14.706 39.4176 11.1616
1 4.46658 -4.67929 29.6932
1 9.42097 0.0944313 20.3024
1 -1.01724 -5.29105 29.9987
1 19.986 -20.4536 21.445
1 13.1826 -23.5801 23.19
1 15.8872 -20.8012 28.8038
1 26.3563 -0.448221 -2.45108
1 33.944 -1.68721 7.22339
1 26.4544 -1.53844 3.5387
1 0.993266 12.8706 -15.9355
1 -0.0990702 9.7822 -14.3065
1 8.60407 9.54355 -19.5514
1 -18.1781 32.0772 13.076
1 -2.04349 36.1194 6.36598
1 -8.60371 33.3281 0.00445056
1 -24.0844 5.43619 35.6541
1 -32.5691 11.1991 30.3805
1 -21.9325 14.0238 33.1741
1 7.2332 -1.45254 24.1963
1 14.8794 -3.20732 31.0014
1 -18.3202 -17.9554 25.0027
1 -17.7074 -15.8129 28.7243
1 14.934 -17.8899 32.1641
1 24.194 -19.5425 21.7002
1 1.07105 -22.1194 -1.35253
1 -6.89232 -18.2155 -7.0906
1 -2.56572 -26.7809 -1.26555
1 3.71443 13.2596 -17.0202
1 3.04055 9.20318 -7.13319
1 -22.862 1.26834 0.219793
1 -31.6968 -3.02042 6.53071
1 -23.7843 -2.09475 -6.37665
1 -20.1243 16.7555 36.2874
1 -26.8996 18.2261 28.7983
1 -11.957 -21.1241 21.947
1 -17.2271 -16.1526 28.813
1 -26.2841 7.37486 -3.92364
1 -32.2021 2.35102 5.52475
1 2.4136 -22.7789 -3.71028
1 -3.95217 -14.6326 -8.42282
1 -21.1045 -19.2196 29.5272
2 2.04907 2.06424 6.75481
3 2.19144 0.907112 7.78264
4 -20.0599 53.3177 -32.1435
4 13.5598 23.51 80.1374
4 44.41 -39.8015 69.6327
4 -4.77198 -56.0618 -39.1436
5 3.31817 4.57011 3.02012
6 5.29388 4.9552 3.79189
4 -20.5147 67.1458 -34.2004
7 -10.9139 9.78726 15.9094
7 16.6492 -9.29404 10.3173
7 6.4231 7.62494 -10.7583
8 4.21626 4.2799 3.77139
9 5.19362 6.29658 3.4922
10 2.30313 2.12271 9.54197
10 3.06287 0.27881 10.9962
10 3.30582 14.6784 10.1101
10 2.57885 14.1631 7.96613
10 1.7952 15.9278 6.41108
11 2.61302 3.80112 5.2259
11 3.82333 3.35824 7.39956
11 3.91869 1.16539 5.38166
11 5.56116 2.66156 5.93498
11 5.81567 2.70146 3.63445
11 3.65663 2.25971 3.16016
11 4.18941 6.36748 2.17568
11 4.59929 6.86788 4.67486
11 6.74574 6.71774 3.32885
2 2.01895 10.2069 2.40046
3 1.94551 9.08287 1.34529
4 20.2473 57.7651 56.2258
4 -15.0722 32.3406 -52.5148
4 -51.3393 -45.7084 -37.5523
4 8.69058 -68.1752 45.4033
5 0.806297 13.1973 6.09503
6 -1.26396 13.2992 5.47074
4 30.1694 62.8415 45.1533
7 -1.1444 10.1708 -12.8093
7 15.8864 4.95419 12.851
7 -13.2801 17.412 13.4153
8 -0.134712 12.7104 5.47319
9 -1.16849 14.6486 5.73515
10 -3.25887 10.2829 17.9697
10 -4.06489 8.37265 16.5362
10 -4.32768 6.18082 17.5405
10 1.53685 5.73242 1.24225
10 2.39009 7.44506 2.73766
11 0.426095 11.8897 2.79799
11 -0.0807607 9.58306 3.09526
11 1.94873 11.6117 4.99695
11 1.08112 9.33802 5.12432
11 -1.36742 10.9961 4.92816
11 -0.0719494 10.9133 6.66403
11 -0.0941142 14.7511 6.9178
11 -0.653316 15.1917 4.48063
11 11.1065 15.0866 6.0739
2 6.38434 15.1823 11.7168
3 6.31192 16.407 10.7408
4 24.3632 -32.1682 48.6911
4 3.41512 -23.9531 -60.2677
4 -26.4496 58.6687 -55.673
4 5.12892 68.5288 62.86
5 5.10193 12.7044 15.4031
6 3.11508 12.3542 14.7151
4 24.0348 -49.0087 52.71
7 18.7117 6.30304 2.81496
7 -6.46468 29.1597 8.74241
7 0.964578 8.54236 28.847
8 4.17323 13.0562 14.7139
9 3.29681 11.0206 15.0219
10 6.56928 15.2598 8.90985
10 5.88534 0.560336 7.47067
10 5.49281 2.73325 8.39651
10 5.8856 3.21191 10.577
10 6.58137 1.35201 12.1928
11 5.95511 13.707 13.5226
11 4.52299 13.7416 11.4217
11 4.72912 16.2007 13.4654
11 2.9651 15.0223 12.6427
11 2.50617 14.5997 14.9066
11 4.73472 15.0244 15.538
11 4.37585 11.0107 16.2574
11 3.87647 10.4172 13.8396
11 1.7811 10.519 15.323
2 6.35637 6.85578 15.9356
3 6.46477 8.0933 16.8829
4 -14.8295 -40.3804 -20.524
4 12.214 -17.6073 68.85
4 52.2241 69.9199 59.4149
4 5.33123 73.4871 -31.6386
5 7.64563 4.33882 12.2846
6 9.6793 4.0826 12.868
4 -11.2937 -38.2771 -23.1147
7 1.40883 -4.8037 32.0313
7 4.01763 25.571 6.89332
7 18.7742 -1.41908 2.83842
8 8.60667 4.75729 12.8871
9 9.48241 2.75047 12.5782
10 11.122 7.01882 0.306142
10 11.8592 8.93305 1.75888
10 12.4685 11.0388 0.886112
10 6.94541 11.4937 17.0211
10 6.2777 9.71864 15.3954
11 6.67953 5.04668 14.4834
11 8.70522 5.98681 15.7751
11 6.83565 7.32313 13.084
11 8.62436 7.84864 14.4782
11 10.1056 6.37836 13.2857
11 8.46972 6.6192 11.6792
11 8.49787 2.71088 11.3134
11 8.8816 2.1624 13.7414
11 -2.73088 2.25981 12.3744
12 4.19537 5.90288 6.82085
12 4.14989 4.8203 9.1394
4 -26.8545 -28.0412 -46.7642
4 -33.1139 -47.8252 25.396
4 16.5143 -35.2093 60.2843
4 39.5463 42.1582 60.5653
4 29.3716 69.0092 0.509439
4 6.77214 41.6368 -47.3915
10 5.66798 5.79928 10.8835
10 6.58356 7.96011 10.6639
10 6.41434 9.2266 8.47427
10 5.24744 8.0542 6.57302
12 4.38777 11.2977 11.6375
12 4.33741 12.5073 9.38009
4 38.1304 44.4619 66.4079
4 39.1286 67.4824 -7.54546
4 -11.0581 57.8893 -37.8647
4 -28.8701 -27.2487 -44.6885
4 -22.2217 -52.4959 16.5108
4 3.83501 -28.0709 65.3339
10 2.70983 11.5631 7.64824
10 1.91919 9.41116 7.75184
10 2.19787 8.06699 9.93235
10 3.39816 9.17726 11.8245
12 -0.133673 14.1409 2.43349
12 -0.032263 13.0989 0.128145
4 39.9328 -18.9929 59.3803
4 51.7435 -40.6554 -17.7957
4 -3.91197 -24.8918 -32.7424
4 -25.9552 48.7001 -33.7428
4 -13.0565 77.9125 9.39048
4 16.176 49.3867 55.2738
10 7.17292 14.0779 16.8188
10 6.22818 16.2768 16.9805
10 11.4839 0.904749 0.769694
10 12.6487 16.3725 2.63878
12 8.45536 3.19642 15.9383
12 8.3108 4.12126 18.2901
4 -17.5727 40.8813 -42.8757
4 -46.7276 55.0909 42.4375
4 16.1938 46.7454 49.3277
4 34.4241 -35.684 53.4969
4 19.659 -60.2306 3.9406
4 -7.16753 -34.5786 -36.0848
10 1.2651 3.18773 1.5813
10 2.11698 0.999188 1.3046
10 -3.15614 16.4062 17.5058
10 9.37912 0.981746 15.6556
400
Atoms. Timestep: 2
1 22.0717 8.7486 30.3974
1 9.62141 -24.2889 -13.5925
1 21.8708 -9.63456 -9.51616
1 -7.17587 -18.8835 24.7051
1 -4.02053 -20.5793 26.3225
1 28.0291 -0.279379 15.5262
1 23.2509 -2.91241 16.184
1 26.423 -1.31707 18.3548
1 13.8862 7.75023 19.5281
1 20.7083 13.97 -8.26838
1 24.7227 14.605 -4.59856
1 9.74375 -23.4169 0.993334
1 20.0163 -13.3061 -1.41998
1 24.7592 -15.0539 3.22419
1 -1.11275 -18.223 -6.85068
1 -7.80938 -19.0285 -9.9913
1 19.6035 -16.7412 27.1397
1 20.7759 -22.3989 22.7554
1 1.32463 -31.8406 17.7735
1 38.8972 41.5943 63.7633
1 -1.92734 10.9635 28.8172
1 -55.3435 -16.0057 15.3584
1 16.7721 29.0719 15.0948
1 9.98738 32.2936 15.7682
1 10.7408 28.2098 20.901
1 24.0303 8.39192 -8.51418
1 28.4634 8.25104 -2.22515
1 21.8556 12.3511 -4.30346
1 13.1058 -4.32204 -24.2358
1 8.85256 1.40409 -23.586
1 16.0361 1.12825 -25.723
1 -8.71284 -22.533 1.69534
1 2.9443 -24.6811 -5.47406
1 916.186 2152.01 917.723
1 -14.8307 5.39255 24.1081
1 -22.4858 2.25689 18.0403
1 -15.2827 -5.58994 21.7679
1 10.8389 10.0002 33.4252
1 17.7266 8.15955 41.7216
1 -6.58963 28.8251 14.7132
1 -7.19921 23.6217 18.7866
1 13.2746 25.2624 22.579
1 18.7735 27.0637 12.0131
1 -10.8077 33.5573 -1.34777
1 5.75078 30.8144 -16.0051
1 11.7066 37.224 -5.30005
1 12.5983 -2.65049 -28.8121
1 13.6192 -3.23831 -17.0923
1 -13.6332 9.27242 -6.49186
1 -18.0485 11.6751 -3.62754
1 -10.1315 13.4325 -16.7815
1 -13.971 -6.47615 25.736
1 -16.4524 -5.14142 19.2121
1 -3.85195 27.1571 11.6284
1 -3.65956 28.8788 20.1533
1 -15.6764 4.40115 -13.2395
1 -19.2149 11.9495 -5.83528
1 32.3131 29.4863 -18.9187
1 10.8169 27.4051 -14.6182
1 -11.7939 26.7688 15.2465
1 -19.852 19.2172 -19.4362
1 -6.85715 -12.353 22.9281
1 -16.5619 -2.65512 19.5058
1 8.65534 -9.34415 -19.8499
1 5.636 -9.83005 -18.1538
1 -22.8717 3.49758 -2.49557
1 -18.8363 6.35421 -7.32548
1 -22.5932 13.2988 -6.06946
1 -13.818 2.89148 -13.9817
1 -14.8267 23.2959 17.6731
1 -16.6761 23.1426 16.0972
1 -7.0942 -15.7894 5.16859
1 -174.152 -2608.96 5285.02
1 -8.73666 -6.01908 6.45294
1 18.8555 -12.2976 13.0442
1 26.157 -14.0104 18.9887
1 -2.86864 -6.75501 -19.6172
1 -4.18676 -11.7889 -15.1837
1 -920.189 -2196.81 -920.812
1 5.19625 23.1741 -11.1134
1 0.464762 17.9221 -0.359371
1 8.30077 22.7261 -10.777
1 -13.646 37.8682 -2.36453
1 -5.39896 39.5597 -4.79403
1 -7.74998 38.1461 -10.5085
1 -20.1828 14.9725 19.358
1 -25.3571 18.4259 11.0024
1 -18.9769 15.7205 14.67
1 7.31443 5.17945 33.3325
1 9.46584 5.78656 31.7154
1 -0.759285 8.10601 37.5896
1 27.8303 -14.3072 5.60395
1 13.0443 -16.7095 12.8119
1 18.0021 -15.3576 17.6322
1 30.5775 13.0341 -16.7577
1 40.7414 8.3206 -13.7218
1 31.6622 5.09434 -13.985
1 1.19492 17.8162 -6.07732
1 -6.22409 19.888 -12.37
1 23.5552 36.3185 -5.47211
1 25.024 32.8771 -7.14124
1 -7.3017 35.3541 -14.1089
1 -16.744 35.2639 -1.7663
1 8.80817 36.7788 18.2714
1 13.0267 36.4355 25.6598
1 11.6488 44.8185 17.7521
1 4.2034 3.07678 37.092
1 6.90728 6.10957 25.2327
1 30.1321 17.912 16.7171
1 39.1943 20.2714 12.3555
1 30.25 20.3844 24.758
1 30.3723 3.13798 -16.8845
1 33.8966 2.06777 -11.2743
1 22.2071 36.5306 -1.36431
1 22.8365 36.0277 -10.2459
1 37.6311 -1.09862 23.7879
1 37.4903 17.085 13.1527
1 5.58626 40.1796 21.655
1 12.0773 34.0558 26.97
1 28.0405 35.9573 -9.1158
1 -15.2074 5.75914 -9.37147
1 -2.9815 37.9261 31.9261
1 -11.0853 28.1006 27.2954
1 10.7175 34.7067 -9.32459
1 7.89045 38.3003 -7.30376
1 -10.1016 17.9105 16.2042
1 -15.8596 18.8991 3.08139
1 -26.4811 13.4694 -8.76647
1 -10.8639 21.3187 -2.75623
1 -8.1717 -0.064563 27.2884
1 -12.2866 0.249389 26.9993
1 -3.88824 40.2092 15.357
1 -9.86376 29.1628 20.7258
1 -6.97059 30.5245 17.2649
1 8.99492 39.0838 21.8914
1 16.132 39.0562 27.9455
1 -13.6886 32.9139 -8.83945
1 -13.332 35.8098 -4.91966
1 2.87694 48.8411 -1.56755
1 13.3392 3.51922 -20.5468
1 9.47937 7.51552 -10.4709
1 16.9191 4.25117 -21.446
1 -6.99596 -13.7271 6.81492
1 -0.985399 -14.1702 3.46845
1 -1.87164 -12.8566 -1.35327
1 -13.7254 8.594 31.6418
1 -18.8033 5.52715 20.6067
1 -13.9051 6.88801 23.3651
1 -0.558821 20.6497 44.0386
1 -0.934029 18.2922 41.6977
1 -9.39969 17.1466 47.6196
1 17.3333 40.8818 13.8124
1 1.1233 44.5682 20.9822
1 6.8413 41.7866 27.509
1 23.1101 13.4483 -9.36258
1 29.4869 20.6398 -3.29962
1 21.2941 23.3687 -5.81897
1 -3.40545 7.17551 -14.4506
1 -10.6016 6.10488 -21.7806
1 17.277 -9.9213 2.13523
1 16.5623 -7.05625 -0.742812
1 -2.76686 -9.49209 -5.59281
1 -10.7253 -10.4368 7.80018
1 -0.732403 -14.3188 29.581
1 5.0702 -10.3597 34.2394
1 2.13391 -18.4192 28.6417
1 -4.57632 21.3284 44.1067
1 -4.64909 16.8563 34.9113
1 23.2791 9.64794 26.6437
1 30.9444 4.93806 21.4143
1 23.103 5.81573 32.4734
1 18.8616 25.9658 -7.85262
1 25.0533 25.4664 -1.93343
1 12.3488 -11.3607 6.02033
1 15.0822 -8.54511 -2.25486
1 25.432 16.0434 31.5758
1 30.692 10.3368 21.1934
1 -3.02097 -13.828 31.6044
1 1.61368 -6.86021 35.0366
1 20.4842 -10.2056 -1.10092
1 28.1085 -1.2472 36.6999
1 16.9692 27.7329 -2.62927
1 22.7017 21.1083 -1.15527
1 2.75515 27.0789 38.7248
1 3.57218 29.0928 35.4406
1 -126637 -41650.9 -104935
1 26.7981 10.8504 25.0287
1 126699 41665.2 104984
1 23.1915 12.6633 31.0246
1 23.678 -6.5853 0.829518
1 25.8176 -7.95766 1.04121
1 16.5348 31.538 11.9967
1 22.4327 20.7475 7.08518
1 19.9079 22.3937 11.1426
1 -10.2608 30.734 5.5353
1 -16.4151 31.4827 -0.793266
1 11.832 24.7299 36.1693
1 14.7708 28.1085 33.3265
1 14.706 39.4176 11.1616
1 4.46657 -4.67929 29.6932
1 9.42096 0.0944276 20.3025
1 -1.01724 -5.29105 29.9987
1 19.9696 -20.413 21.4177
1 13.1826 -23.5801 23.19
1 15.887 -20.9418 28.8134
1 26.3563 -0.448215 -2.45106
1 33.944 -1.68721 7.22339
1 26.4555 -1.53584 3.54108
1 0.990129 12.8702 -15.9343
1 -0.0991112 9.78211 -14.3064
1 8.60407 9.54355 -19.5514
1 -18.1781 32.0772 13.076
1 -2.04349 36.1194 6.36599
1 -8.60141 33.3293 0.00605276
1 -24.8415 5.09507 36.0208
1 -32.5691 11.1991 30.3805
1 -21.9215 14.0148 33.1746
1 7.2332 -1.45252 24.1963
1 14.8794 -3.20732 31.0014
1 -18.3202 -17.9554 25.0027
1 -3.73092e+06 2.63916e+06 -688492
1 14.9339 -17.8899 32.1642
1 24.1939 -19.5425 21.7002
1 1.06741 -22.1176 -1.34611
1 -6.8919 -18.2152 -7.08934
1 -2.56781 -26.7735 -1.26541
1 3.7176 13.2601 -17.0214
1 3.04056 9.20317 -7.1332
1 -22.861 1.26761 0.22055
1 -31.6969 -3.02177 6.53206
1 -23.7843 -2.09475 -6.37665
1 -20.1243 16.7555 36.2874
1 -26.8994 18.226 28.7983
1 -11.9546 -21.1222 21.9494
1 3.73089e+06 -2.63919e+06 688550
1 -26.2841 7.37481 -3.92339
1 -32.2023 2.35132 5.52498
1 2.41381 -22.7684 -3.70526
1 -3.95218 -14.6326 -8.42281
1 136.947 2586.71 -5243.47
2 2.24279 1.91979 6.86581
3 1.46093 2.54082 6.4727
4 -18.8792 51.3531 -29.1658
4 13.3805 22.4137 77.2842
4 42.6006 -38.0908 67.293
4 -4.13927 -52.9223 -36.7125
5 3.31594 4.5694 3.02348
6 5.29402 4.95462 3.79417
4 -19.6163 63.7164 -33.0974
7 -10.2428 9.41244 15.5679
7 16.049 -8.72572 10.0774
7 6.45532 7.32829 -10.1161
8 4.2403 4.31542 3.61966
9 5.19381 6.29973 3.49001
10 -1.04522 9.78622 3.30232
10 4.63545 3.75952 21.3552
10 9.48161 6.49389 19.0536
10 1.47458 3.62125 0.892639
10 -1.54443 23.5932 0.332633
11 0.818756 4.59869 6.63443
11 1.87243 4.21368 8.53083
11 5.59205 -0.221654 6.03168
11 7.03067 1.09171 6.5174
11 5.90645 3.34704 1.74914
11 4.00462 2.95792 1.33551
11 4.2396 6.36679 2.23753
11 4.61901 6.85108 4.63369
11 6.67391 6.70181 3.33308
2 1.65381 10.0648 2.25705
3 2.78292 10.7227 2.63127
4 19.0086 55.9794 53.4058
4 -14.9464 31.1943 -49.6488
4 -49.2745 -44.1609 -35.4607
4 8.05958 -64.7613 43.2054
5 0.806405 13.1963 6.0939
6 -1.26326 13.2999 5.46605
4 29.0198 59.1632 43.9205
7 -0.936222 10.1369 -12.1059
7 15.157 5.23365 12.4553
7 -12.6113 17.1112 13.1636
8 -0.267252 12.7583 5.55968
9 -1.16849 14.6518 5.7368
10 0.256744 17.383 23.6898
10 -5.7139 11.964 6.19052
10 -11.3898 -1.61293 9.26379
10 2.6119 -5.36495 7.87458
10 6.55354 15.7468 9.09448
11 0.216604 11.6741 0.750781
11 -0.22935 9.65409 1.00535
11 3.79095 10.7382 6.03347
11 3.03554 8.75286 6.1467
11 -2.94438 11.8365 6.02564
11 -1.79979 11.7651 7.56521
11 -0.143446 14.749 6.86636
11 -0.672056 15.1757 4.52558
11 11.172 15.0704 6.06066
2 6.14926 15.247 11.6301
3 6.89502 14.8511 12.02
4 23.5131 -30.3947 45.8258
4 3.30409 -22.717 -57.5824
4 -25.0557 56.7929 -53.0228
4 4.93367 65.6473 60.1216
5 5.10386 12.7055 15.3999
6 3.1149 12.3548 14.7123
4 23.2265 -45.6967 51.693
7 18.0821 6.74864 3.15871
7 -5.94506 28.4721 8.96335
7 0.98845 8.90859 28.2287
8 4.13966 13.0084 14.862
9 3.29682 11.0171 15.0243
10 9.23004 8.16946 14.8567
10 5.51558 -3.11164 -2.67475
10 0.693237 11.1368 -1.23188
10 5.77296 13.0152 18.4274
10 9.19319 -6.18095 18.2537
11 7.64757 12.7222 12.111
11 6.40067 12.7504 10.2781
11 3.25642 17.9213 12.8419
11 1.71051 16.8864 12.1224
11 2.29637 13.8055 16.7323
11 4.251 14.1775 17.2854
11 4.32321 11.0088 16.2012
11 3.85583 10.436 13.8805