LAMMPS (19 Feb 2013)
# buckingham potential
units 			metal
atom_style		full
read_data		fort.26
  3 = max bonds/atom
  8 = max angles/atom
  11 = max dihedrals/atom
  triclinic box = (0 0 0) to (13.757 16.634 18.4017) with tilt (0 -5.03069 0)
  1 by 1 by 1 MPI processor grid
  400 atoms
  168 bonds
  312 angles
  316 dihedrals
  4 = max # of 1-2 neighbors
  7 = max # of 1-3 neighbors
  14 = max # of 1-4 neighbors
  16 = max # of special neighbors
#--------------------------------------------------------------------------
#OLPS
#--------------------------------------------------------------------------
#neighbor 2.0 bin
#neigh_modify delay 10

################################################################################
#### Tersoff
################################################################################
pair_style tersoff
pair_coeff * * C.tersoff C C C
ERROR: Incorrect args for pair coefficients (pair_tersoff.cpp:273)
