ITEM: TIMESTEP
1000
ITEM: NUMBER OF ATOMS
2048
ITEM: BOX BOUNDS
0 12.688
0 12.688
0 12.688
ITEM: ATOMS fx fy fz 
-0.0505875 -0.0826486 -0.000365522 
-0.103195 0.0401807 -0.00289954 
-0.0346816 -0.00894161 0.0345457 
-0.00900879 0.0007497 -0.13906 
-0.0822845 0.166802 0.0979765 
0.1138 -9.04345e-05 0.201187 
0.0375278 -0.0688346 0.0528308 
0.0233315 0.0495947 -0.0297738 
0.0890778 -0.0129493 -0.0256425 
0.0547035 0.0221899 0.0805369 
0.019141 -0.000692082 -0.046019 
-0.00551507 0.0284566 0.0351262 
-0.149565 -0.015992 -0.0877399 
-0.0482105 -0.00162351 0.0167066 
-0.0117052 0.0238492 0.0362232 
-0.0218165 0.0207698 0.0148135 
-0.0331254 -0.0252894 -0.0264162 
-0.0497947 -0.0255404 0.0711258 
-0.0303064 0.0188829 0.0392823 
0.00765604 -0.0899825 0.0153271 
0.00442184 -0.0110534 -0.0152997 
-0.195301 -0.414611 0.040762 
0.066245 0.129406 -0.0090705 
-0.00492539 0.0193613 0.0751893 
0.024593 7.15419e-05 -0.0162364 
-0.0166349 0.00410085 0.0370569 
-0.00282364 -0.0204851 -0.0255624 
-0.0253443 0.0236474 0.0204563 
0.0187109 -0.0355192 -0.0435665 
0.16746 -0.043354 0.18157 
0.027779 0.0717448 -0.00864811 
0.00576387 0.0313971 -0.0538886 
0.0485093 -0.0321285 0.00107907 
0.013479 -0.0519587 -0.00864985 
-0.0742369 0.07619 0.145012 
0.0983432 0.123016 0.0658422 
-0.009067 -0.0103343 0.00211935 
0.115221 -0.0403264 -0.0543837 
0.0343323 0.0468483 0.0605555 
0.0284558 -0.0149754 -0.0309661 
0.0375471 0.0127105 -0.0927484 
-0.00202359 -0.0253208 -0.0254591 
0.00812682 -0.0149086 0.0117742 
-0.00781503 -0.0331019 0.106389 
0.049437 -0.0314793 0.0205628 
0.0195382 -0.103187 0.0733584 
-0.0157224 0.00576096 0.00257187 
0.0628397 -0.0222177 -0.00742023 
0.00722563 0.0230357 0.00637917 
0.0679444 0.0278973 -0.0666338 
0.0122343 0.012142 0.0299633 
-0.0448917 0.0843449 0.0470821 
-0.00643685 0.00639394 -0.0267949 
-0.148647 0.541994 0.0522722 
0.00353364 -0.0171132 -0.0899243 
-0.037349 0.0146421 -0.0523944 
-0.689014 0.242821 -0.186829 
0.109624 0.0935659 0.0598927 
0.0494304 -0.00021984 -0.0120861 
0.00755744 0.0410869 0.00440689 
-0.0528944 -0.00798832 -0.0243321 
-0.0127649 -0.0355878 -0.024065 
0.081539 -0.0370297 0.0500819 
-0.0202447 0.0114625 -0.0414386 
-0.247343 -0.0282089 0.0486546 
0.0662958 0.0690975 0.0772488 
-0.0672166 0.0452364 -0.000722946 
0.00958733 0.0536859 -0.05475 
-0.0115634 -0.0194339 -0.0287239 
0.0652891 0.0170086 0.0264013 
-0.0625072 0.0585642 0.00326979 
-0.00596332 -0.0369219 -0.0457952 
0.0203172 0.0249272 0.0489806 
0.00755662 0.0070318 -0.013422 
0.0602831 -0.101623 0.039899 
0.0533207 0.00351986 -0.0186356 
-0.0335799 0.0543483 -0.00534975 
-0.0392984 0.00685021 -0.0798119 
-0.176194 0.091773 0.024058 
-0.0329188 0.00855666 -0.00457751 
0.0247748 0.0428508 -0.0256321 
-0.00880411 -0.00206744 0.00950723 
-0.00435488 0.0434504 0.0159671 
-0.0216266 -0.0396509 0.0581457 
0.0576616 0.0473175 0.00702345 
0.0988773 0.00381665 0.268931 
-0.0118751 0.0276001 -0.0134012 
-0.00683374 0.0226547 0.0123509 
-0.824242 0.21696 0.115239 
0.0525319 -0.0460762 0.000635695 
0.120794 -0.038507 0.00453611 
0.0125319 0.113726 0.0334346 
0.0276084 -0.0229654 -0.00654245 
0.176534 0.0520485 0.0845267 
0.016113 -0.0607262 0.0476573 
-0.0150868 -0.0203821 -0.00600086 
0.0938813 0.014886 0.038787 
0.027824 0.0249298 0.0937719 
-0.0129792 -0.0277281 0.0288683 
-0.0370417 0.00432447 -0.0328854 
0.00813512 0.00248235 0.00782167 
0.020142 -0.00638867 -0.0424489 
0.10182 -0.0587806 0.0504321 
-0.0219904 0.0808788 0.00940919 
0.0451675 0.052584 0.0307787 
-0.0076773 -0.0214011 0.0383625 
0.0371029 -0.0256998 -0.0431199 
0.00488239 -0.0274654 0.00460583 
-0.050576 0.0368183 0.0299788 
0.00106412 0.0121286 0.00640702 
-0.00939148 -0.0152962 0.0188735 
-0.0356462 -0.0090898 -0.0593086 
-0.0546295 0.00291331 -0.0436637 
0.0433444 0.0289959 0.0301634 
0.0124763 -0.00857193 -0.0270615 
-0.0468153 -0.0387155 0.0202884 
-0.0317364 0.0395275 0.00300666 
0.020862 0.017095 -0.00125342 
0.00233021 -0.0002203 0.0167388 
0.0821162 -0.0184824 0.0150953 
-0.0579155 -0.0256677 -0.050799 
0.0671172 0.0156933 0.0357946 
0.00394561 -0.0367593 0.00853512 
0.011597 -0.0413108 0.037044 
0.054388 0.026944 -0.0914823 
0.000112561 0.021988 -0.0326094 
-0.0773106 0.00987133 0.0138776 
-0.0512443 0.0109078 -0.138742 
0.0806355 -0.115392 -0.0313794 
0.0265074 -0.0200232 0.0147678 
-0.00342904 0.00739094 -0.0226149 
-0.0944337 0.0473758 -0.000812942 
0.00569071 -0.0243682 0.00541597 
-0.00343082 -0.00256665 -0.0162875 
0.0381921 0.0990002 0.00257969 
0.0994547 -0.0631954 0.0443688 
-0.0827496 0.00292169 -0.047826 
-0.068554 -0.015374 0.0201167 
-0.0120868 0.00386709 -0.0157113 
0.0315704 -0.00404263 -0.02969 
-0.0232836 0.0598612 -0.0367432 
-0.0751604 -0.0153822 -0.0129133 
0.0261743 0.0311678 0.014234 
0.175865 0.157331 -0.0133896 
-0.0127674 0.0299462 -0.0100977 
0.0319268 -0.0496801 -0.0529606 
0.0216641 -0.0536162 -0.078888 
0.0105128 -0.0547126 0.00529937 
-0.144345 0.0673243 -0.214788 
-0.0126651 0.0431363 0.0468108 
0.00124473 0.116616 0.14342 
0.150457 0.110925 0.00517788 
0.014842 -0.00650984 0.0339464 
-0.0802081 -0.0357521 0.00552476 
-0.00627558 0.0648321 0.0516349 
0.00715298 -0.0500264 -0.0334258 
0.0249116 0.000304745 0.00168708 
0.0135768 -0.00726532 -0.0828756 
0.0440178 0.0020592 0.00075451 
-0.0083843 -0.0241778 -0.0189996 
-0.0755871 -0.0471201 0.11363 
-0.056813 0.0181748 0.0366056 
-0.0162894 -0.0160832 -0.0322603 
-0.0902975 -0.157528 0.0562146 
0.0019571 0.0102137 -0.00987791 
0.019822 -0.0134351 0.0189294 
-0.0552236 -0.164568 -0.0637347 
0.0407154 -0.0147767 0.00995148 
-0.15717 0.0142945 -0.14316 
0.0616484 -0.107308 0.0102967 
-0.0356763 0.00879992 -0.0064717 
0.0102639 0.0923122 -0.0454208 
0.018644 0.0018296 0.0011518 
-0.0645163 0.0788477 0.0359545 
0.00139118 -0.0722181 -0.0352162 
0.00525859 0.0363905 0.0751633 
-0.00977037 -0.0145367 -0.00992088 
-0.00868047 0.0272111 -0.0263692 
0.0328471 -0.000323854 0.0905935 
-0.016533 -0.0907212 0.0224776 
0.0490225 0.00697017 0.0202237 
-0.00929005 0.0126231 0.0257079 
0.0307822 0.0265633 -0.0255838 
-0.0271648 -0.0363951 0.00610073 
-0.0176421 -0.0343009 0.10182 
-0.00771591 0.026471 -0.00202105 
-0.0275742 -0.0061155 -0.0299697 
-0.0102283 -0.00197425 -0.0233433 
0.0300245 -0.00931575 0.00571333 
-0.0141362 0.0406755 -0.0151459 
-0.0125554 -0.00161575 0.000547613 
-0.0156633 0.00567474 0.00929062 
0.0147529 0.0474114 -0.0321409 
-0.0483237 -0.0460716 -0.0250474 
-0.0214309 0.00210081 -0.0325511 
-0.0221591 -0.0462543 -0.0101064 
0.0128616 -0.0109714 -0.00420585 
-0.0068585 0.0031505 0.016113 
0.0690332 -0.260165 -0.142068 
0.0788243 0.108686 -0.224319 
-0.0283647 -0.0604317 -0.0191601 
-0.00439491 0.0404026 -0.0062223 
-0.0011033 0.0140673 -0.0169325 
0.0217305 0.0615555 -0.00272671 
0.020476 -0.0994689 0.127101 
-0.0584237 0.0113812 -0.0143848 
0.0409149 -0.00423347 0.00939347 
0.0150895 0.0327332 0.0055401 
0.0207634 -0.00746689 0.000234405 
-0.00126833 0.010424 0.0210852 
-0.053714 0.00368257 -0.0259714 
-0.0363434 0.174714 0.0896371 
0.0146109 -0.00135233 -0.0200915 
0.0590479 -0.0245351 0.00625529 
0.00590881 -0.0287691 -0.00157437 
-0.00854511 -0.0722726 0.0277936 
0.0703071 0.0279931 0.110764 
0.104507 0.178219 -0.0354494 
-0.0262609 -0.0521449 -0.00987137 
-0.0481335 0.0250521 0.0402671 
0.0185773 0.0401303 -0.0202924 
0.00552897 -0.00066141 0.00371015 
0.0325357 -0.0373029 0.0252398 
-0.0477923 0.0416581 -0.0173553 
0.00215492 0.0190507 -0.0299096 
-0.0382889 -0.017843 -0.0431374 
0.0529932 -0.00949963 0.0656807 
-0.0322062 -0.0173285 -0.0157122 
-0.0114147 -0.02399 -0.0387257 
-0.0101321 -0.00242414 -0.015026 
-0.0703246 0.119057 0.165631 
-0.0144475 0.0465356 -0.00720141 
-0.0334915 -0.02987 0.00500384 
-0.018602 0.0213223 -0.0255065 
0.0190544 0.011258 0.012685 
-0.024277 -0.0194816 -0.027928 
-0.0483642 -0.00325753 0.0499082 
0.0384065 0.0259065 0.00874745 
0.008528 -0.00255369 -0.00232357 
-0.0197824 0.0105884 -0.00880136 
-0.0206081 0.0176241 -0.0147538 
-0.0238793 0.0038633 0.0283853 
0.00245386 0.0069035 -0.0181291 
0.00238261 -0.0903858 -0.358651 
0.00805882 0.0813223 -0.0631275 
0.0765754 -0.0333455 -0.0479772 
-0.0034009 -0.0064991 -0.0186309 
0.019626 0.0127509 -0.026707 
0.0324564 0.119982 -0.125129 
-0.091791 0.0979582 -0.117523 
-0.0611306 0.0740241 0.0146384 
-0.0213677 0.057815 -0.0209079 
0.0188282 -0.0278762 0.0014937 
-0.0328511 0.0577853 0.0274936 
0.0255558 -0.0454301 0.0396342 
-0.015519 -0.0733129 -0.0703203 
0.0298041 0.045089 0.0354605 
-0.0566137 0.0570138 -0.0461565 
0.0439684 -0.00459433 0.0255794 
0.0570021 0.0865585 0.0468245 
0.0596649 -0.0416702 0.131058 
0.0164553 -0.0263451 -0.0105297 
0.0188042 0.0172578 0.00820322 
0.0313135 0.0322519 -0.00383616 
-0.0639902 -0.275533 0.046794 
0.0300068 -0.0591146 -0.0346292 
0.00922801 -0.0164409 -0.0155567 
0.0118702 0.00295535 0.00980962 
0.0032311 0.00824799 0.0215431 
-0.0325707 -0.0138278 -0.00872587 
0.0106415 -0.0415769 0.0630406 
-0.0619585 0.0161522 0.0215298 
0.0282114 -0.00898938 0.0117645 
-0.0397557 0.0279794 0.00913317 
-0.0545602 -0.0155993 0.00835891 
-0.0545668 0.0457678 -0.00607705 
0.0016871 -0.0125446 0.0125235 
0.0493131 -0.0269102 0.0401178 
-0.0550051 0.0583689 -0.0413815 
0.00145484 -0.0421249 -0.0185752 
-0.064205 0.0207803 -0.194331 
-0.0562 -0.0288334 -0.00871252 
-0.0130373 0.0133076 -0.000451992 
-0.0309404 -0.0517196 0.075698 
-0.0816524 -0.103386 0.0129715 
-0.0045166 -0.016981 -0.00750781 
-0.0376759 -0.0179714 -0.0208911 
0.0171713 0.0257658 -0.0278846 
0.0515793 -0.151761 0.272282 
0.0155069 -0.00456159 -0.0136567 
-0.0123232 0.0599913 -0.0646222 
-0.0194397 0.00779644 -0.0277795 
-0.0116756 0.0108344 -0.0250935 
0.0264903 -0.0354928 0.0371407 
0.0135662 0.0226336 -0.0157857 
0.0493181 -0.0176044 0.0206003 
-0.0202604 -0.87862 0.335607 
-0.157534 -0.154152 0.0850572 
0.021224 0.088818 0.0966501 
-0.0219964 0.00886725 -0.0340921 
-0.0171617 -0.014198 0.0148389 
0.0359553 -0.0112006 -0.0350257 
0.0113898 0.0478956 -0.00566744 
0.0360851 -0.00537349 -0.0192016 
-0.0387533 -0.00996425 0.00963956 
-0.0532547 0.029687 -0.0198188 
0.0376822 -0.0354517 -0.00246281 
-0.0384064 0.0216986 0.0178579 
-0.0287937 -0.0594454 -0.00344242 
0.132807 -0.0162553 -0.0440782 
-0.0650182 -0.0697368 0.191828 
-0.0908541 -0.0835821 0.00118221 
-0.00910033 -0.0487028 -0.0162521 
-0.00178763 0.01404 0.0358656 
0.0145905 0.00154636 -0.00477613 
-0.000338991 -0.00434982 -0.00481459 
-0.190101 -0.0733205 -0.0530036 
-0.0349517 0.0371509 -0.0507273 
0.0816425 0.0601108 -0.131949 
-0.00164544 0.0950535 0.0143752 
0.0627961 0.023945 0.0630881 
0.00489042 0.0417375 -0.0300151 
0.0791874 -0.0302557 -0.00615259 
0.0330926 -0.00359287 -0.0341706 
-0.0341889 0.0170463 0.0447984 
-0.114065 -0.00778249 0.031875 
0.0351223 0.0285662 0.00107386 
0.0115081 0.00622507 0.0182553 
-0.0399515 -0.0398781 0.0964241 
0.019141 -0.0266722 0.0154107 
-0.0566557 0.0360906 -0.0328977 
0.0223522 -0.012014 0.0627407 
-0.0463118 0.0651978 -0.0216323 
0.0238688 -0.00873263 0.0539275 
0.00162806 -0.0987877 0.0347497 
-0.0377224 -0.0490432 -0.094678 
-0.0294386 -0.00391772 -0.00561088 
0.0035055 -0.00616238 -0.0197733 
0.0187358 -0.012213 0.0134562 
0.00525174 -0.0308246 -0.032808 
0.0185684 -0.0424413 0.0324513 
0.0581603 -0.078413 0.0166306 
0.0117311 0.01239 0.00428069 
-0.0155702 0.0126589 -0.0115753 
0.0581887 0.0484765 0.0294635 
0.050704 0.0314033 -0.0562329 
-0.000763754 -0.14234 0.255166 
-0.135449 0.0342779 0.0277013 
0.0575713 0.0908712 -0.210604 
-0.023801 0.0108989 -0.0423625 
0.0256862 0.00705407 -0.0116737 
-0.0832299 0.0514438 -0.0980727 
0.0135625 0.0193242 -0.0419743 
0.00352289 0.0625923 -0.0254717 
0.0142838 -0.00270594 0.00103711 
-0.000559104 -0.0160777 -0.0111622 
0.0267277 -0.0104681 0.0265977 
-0.0678797 -0.0336775 0.0359606 
0.0255329 0.0325512 -0.0302893 
-0.0211114 0.00165955 0.0320362 
0.0553247 -0.00338414 0.0176895 
0.00855183 -0.0512178 -0.0231208 
0.121478 0.0214508 0.104917 
0.0294981 -0.0068926 -0.0205112 
0.0160726 -0.0264023 0.0889201 
-0.0819643 -0.163697 -0.0917566 
0.00246384 0.0883745 -0.0610928 
-0.0110704 -0.00670074 -0.0239938 
0.0184971 0.0107339 -0.0122787 
0.0384957 -0.0332934 -0.00627792 
-0.00310835 -0.00807728 -0.013945 
0.105988 -0.0920253 -0.0461099 
0.35552 -0.12125 -0.169798 
0.0138851 -0.00807331 -0.015274 
-0.0169786 0.0216625 0.00429007 
-0.0381698 0.0106365 -0.0764167 
0.0981299 0.0561769 -0.033426 
-0.0358991 -0.0190902 -0.0304152 
-0.0219934 0.0649224 -0.0064873 
-0.0256888 0.0131656 -0.0145684 
0.00658565 0.00788849 -0.0127756 
0.00200283 0.0294358 0.0663738 
-0.0250457 0.0353844 -0.0233521 
0.0964632 0.0249007 -0.0189211 
-0.0645832 -0.0742742 0.0130839 
-0.0400763 -0.225931 -0.00212012 
0.0231837 0.0166132 -0.0298976 
0.211577 0.484795 0.104979 
0.010659 0.0527795 0.00656505 
0.0355425 0.00863904 0.0136329 
0.0246753 0.0260993 0.0349583 
-0.00450234 0.0143973 0.0174256 
0.0160787 0.0290132 0.0334117 
-0.019687 -0.00815757 -0.0079387 
0.00138181 0.0693255 -0.0100196 
0.00130306 0.026435 -0.0305653 
-0.0885737 0.0499792 0.00654997 
-0.0362063 -0.0475396 -0.0120469 
-0.0638147 0.0849725 -0.0214896 
-0.00743961 -0.0172669 0.0255213 
-0.0683195 -0.0490257 0.00560041 
0.00583267 -0.00632583 -0.0329638 
-0.0586838 -0.0317058 0.0115239 
-0.123007 -0.0735636 -0.161352 
-0.0278548 -0.00888515 0.000961092 
0.0186749 -0.0172414 -0.00964479 
0.0119431 -0.00264302 -0.0194293 
-0.012493 0.0466764 0.0164436 
0.0870633 0.0424994 0.0309399 
-0.0221872 0.00968798 0.0051951 
-0.0122494 -0.0243101 0.0289513 
-0.000901694 -0.00686101 0.0195543 
0.0120921 -0.0180199 -0.0104322 
0.0369592 -0.0109114 -0.00724865 
-0.0029912 -0.0516749 0.0239615 
-0.119108 0.00129943 0.0567485 
0.130474 -0.00525034 -0.00883585 
0.02664 0.0122271 0.0205408 
0.0272325 0.00890641 0.0176815 
-0.0359163 0.00848407 0.00780892 
-0.0213938 0.010815 0.0379824 
-0.0207106 0.0161295 -0.00763148 
-0.0593739 -0.000754886 -0.0117107 
-0.00681274 -0.0788374 -0.0507304 
0.0730538 -0.0951281 -0.00773174 
0.0153811 0.0307343 0.0111422 
0.0005121 0.00833205 0.0141605 
0.00968205 0.0545444 0.0416486 
0.0664546 -0.0288459 0.00349889 
0.00972167 -0.0386531 0.0573706 
0.0180922 -0.140749 -0.0391994 
-0.0282123 -0.00669892 0.0444174 
-0.000305483 0.0221224 -0.0187842 
-0.0410526 -0.00380372 -0.00263559 
-0.0157988 0.0623049 -0.020477 
0.0864326 -0.0128313 -0.0711786 
-0.0866866 -0.0121707 0.0732002 
0.0834445 -0.0606312 0.012639 
0.0232393 -0.0627984 -0.0652569 
-0.10466 0.00631998 0.0443257 
0.00814572 -0.0355278 0.0266957 
0.272027 0.138686 0.382571 
0.272732 0.0948775 0.260312 
-0.0301196 -0.0116663 -0.0587664 
-0.0189453 -0.0321989 0.0312056 
0.0296185 0.0363023 -0.0380525 
0.0101241 -0.000970213 0.0359939 
-0.0145961 0.00445593 0.0208637 
0.0642667 -0.0279362 0.012083 
-0.0811009 -0.0920722 0.00711228 
0.0167928 0.001242 0.0363583 
-0.00813869 0.00895857 0.0140456 
-0.0676381 0.135246 -0.0320584 
-0.0306872 -0.0146195 -0.0192927 
0.0522279 -0.0393441 -0.0253754 
-0.00315418 0.0194056 0.0685226 
-0.0860179 0.0203957 0.000878775 
-0.0148861 0.027535 0.0393227 
-0.00294402 -0.0207094 0.00264683 
0.0107765 -0.0131325 0.0152595 
-0.0488607 -0.0416575 0.0414136 
0.0234139 0.0155669 -0.022037 
0.0380874 -0.00434163 0.0196254 
-0.0019871 0.0783877 -0.00799518 
-0.0402812 0.0615521 -0.0428185 
0.0465896 0.0495171 0.000481781 
-0.065318 -0.0224618 -0.0579874 
-0.0264573 0.00775838 -0.00873988 
0.0626778 -0.0213707 -0.0370089 
0.00996779 -0.0265756 -0.0232471 
0.0410883 0.000618843 0.132402 
0.00507459 0.0472694 -0.0181304 
0.00521681 0.0462874 -0.0238949 
-0.0434677 -0.0134713 0.0810967 
0.154515 -0.164811 -0.0798035 
-0.000566991 0.00602223 0.00745 
0.0120763 -0.0167183 -0.022256 
-0.0188707 0.0190525 -0.012827 
0.0104828 0.0319728 0.0273853 
0.00147026 -0.00262028 0.014098 
0.0154905 -0.0191974 0.0280419 
-0.000590804 -0.0298684 -0.012584 
0.0224342 0.0281549 -0.000390841 
0.0183443 -0.0278238 -0.0130679 
-0.137733 -0.0379725 0.144207 
-0.0240405 -0.0553897 0.0278179 
0.00534618 0.0370577 0.00299185 
0.00369653 -0.0024031 0.00846182 
0.0158526 -0.0065995 0.036119 
-0.00930855 -0.00820537 -0.0465342 
-0.0296793 0.0131321 0.0379657 
-0.0286643 0.00872517 -0.0203871 
0.0348878 -0.0380403 0.00542476 
0.0184868 0.0386143 -0.0308763 
-0.0225515 0.0287906 -0.0161873 
-0.0184853 -0.0349038 0.00832683 
0.00922282 -0.0186431 0.054711 
0.00304479 0.0247019 -0.141088 
0.0139119 -0.0175897 0.0162328 
-0.0463971 0.101237 0.0124018 
0.0380682 0.00980716 0.0179489 
0.0251459 0.00237685 0.0443388 
-0.273468 -0.0474559 -0.120467 
-0.00792065 0.009197 -0.0453298 
-0.0229654 0.00809557 -0.0163811 
-0.0442678 0.0683075 -0.0584437 
-0.0294057 0.0672963 0.0889215 
-0.00648587 -0.0416303 0.0170652 
-0.00352742 0.0218582 -0.0041941 
-0.0255548 0.027138 0.0391206 
0.0158198 0.0076617 -0.085431 
-0.0730818 0.00803813 -0.00976014 
0.0232173 0.0949085 0.0418258 
0.0119484 0.0646819 -0.0621887 
-0.0253929 -0.000653577 0.00515348 
-0.135745 0.0471811 0.0190621 
0.0575345 -0.0219268 -0.0490739 
0.743426 -1.47699 -0.200372 
0.0899405 0.0261491 0.0467933 
-0.0044353 0.0206876 0.0116476 
-0.0220328 0.0110451 0.0509128 
-0.0481854 0.005856 -0.00253031 
0.0105364 -0.0234399 -0.009956 
0.0846316 0.0492148 0.0351764 
0.0150366 0.0408448 -0.0184832 
0.0625306 -0.0666419 -0.0863698 
0.0436065 -0.0604759 -0.0493939 
-0.0115355 -0.176859 -0.0517137 
-0.0316832 0.00709496 -0.0399509 
-0.00343031 0.0102347 0.00278654 
0.201378 0.669235 0.0806745 
0.0332474 -0.0109683 -0.0216221 
0.166701 -0.0241899 -0.0291099 
0.0200842 0.00554553 -0.0185819 
0.00569061 0.00755551 -0.0078432 
0.0330977 -0.0157025 -0.0196076 
-0.00271715 -0.0413963 -0.0171016 
0.00101594 0.00177082 0.0179894 
0.0188827 -0.0642773 0.00680559 
-0.0119211 -0.00793485 -0.0192067 
0.046922 -0.0248736 0.0546421 
-0.0131713 0.0212383 -0.0234016 
0.00177223 -0.00133181 0.0151109 
0.0113774 0.0447185 -0.00864615 
-0.0115669 0.0472916 0.032724 
0.0430467 0.0118934 -0.010883 
-0.0181122 0.0309813 0.0619265 
-3.51982e-05 -0.0028437 -0.0453955 
0.102654 0.0536858 -0.0367061 
-0.0174821 0.0254908 0.0267423 
0.0392495 0.0581422 0.0320739 
-0.0016758 -0.00504062 -0.0245075 
0.101408 -0.218511 0.170116 
0.0163633 -0.0675536 0.0925976 
-0.0550517 0.0173718 -0.0179581 
-0.0214212 -0.0287779 -0.000349835 
-0.063611 -0.0210122 -0.0373683 
0.0272381 0.0305454 -0.00715992 
-0.0304317 -0.0107368 -0.0037072 
-0.00343712 -0.0316232 0.0672964 
-0.0284153 0.0393527 -0.130062 
0.132222 -0.140308 0.0412509 
-0.0390057 0.0467506 0.0279361 
-0.0417425 0.020582 0.0825628 
0.0368276 -0.00447391 0.00502181 
0.0077513 -0.0328997 0.032114 
0.00769137 -0.0639982 -0.0957375 
-0.0493818 0.0015178 0.0239211 
-0.0170245 0.0237772 -0.0114284 
0.105597 0.127975 0.0429923 
-0.0462251 0.0350296 0.0678045 
-0.0250041 -0.00324943 0.00446984 
-0.00526705 0.125495 -0.0308068 
-0.0260858 -0.0429581 -0.0280693 
0.0260644 0.0271929 0.0153475 
-0.00582055 0.0882819 0.0294802 
-0.104881 -0.190599 -0.00576002 
0.00847321 0.0468276 0.0321609 
-0.00129228 -0.0446981 -0.00967261 
-0.0398248 -0.0663987 -0.0277963 
0.0573945 -0.030883 0.016333 
-0.0256653 0.11136 -0.0595552 
0.230912 -0.113329 -0.0965637 
-0.0487902 -0.0288472 -0.0233841 
-0.0161556 0.00312344 -0.00497246 
0.122101 -0.0191897 -0.0038298 
0.0719013 0.066369 -0.0599578 
0.00902036 0.00836661 0.045865 
-0.00230371 0.00594882 -0.0364972 
-0.00385538 0.00250153 -0.0163172 
0.0331269 0.0941242 0.111927 
-0.00833521 0.0943383 -0.014443 
-0.0682102 0.0306864 -0.0724378 
0.0191654 0.0400696 -0.015951 
-0.0308203 -0.000526624 0.0214852 
-0.0146309 0.061581 0.0492458 
0.0120283 0.0660707 -0.013124 
-0.0204558 -0.0450753 -0.0457346 
-0.023386 0.116495 -0.0679975 
-0.0429715 0.0140846 0.0327309 
-0.0236599 0.0295677 0.0439727 
0.0443629 0.0326199 -0.016351 
-0.00480504 0.0226613 0.0411628 
-0.0125225 -0.0349291 -0.00316981 
-0.0140963 -0.0184882 -0.0146107 
-0.0204127 -0.033746 -0.044639 
0.0182421 0.0321501 0.0776979 
0.00949225 -0.049344 0.0709112 
0.0116145 -0.065892 -0.00304088 
0.0141133 -0.0232777 0.0840212 
0.0188406 0.0108331 0.0555947 
-0.017124 -0.0174249 -0.0207409 
-0.222142 0.185858 -0.186611 
0.148121 0.0394105 0.025288 
-0.0068089 -0.0192544 -0.00210026 
0.0530443 0.0474021 0.0138673 
0.0113571 0.00839876 0.030087 
0.0987094 -0.0627961 0.0348634 
-0.10179 0.0289413 -0.0458568 
-0.0155244 0.042628 0.0238125 
0.0422239 -0.00244868 -0.0430267 
-0.0204102 -0.0632417 -0.133737 
0.0460384 -0.103339 0.159642 
-0.0221971 0.041404 -0.0733931 
-0.0205109 0.0407367 -0.0274909 
-0.144403 -0.0952368 0.0896909 
-0.0143909 -0.0410328 -0.0204741 
-0.00875962 -0.0437972 -0.0420439 
-0.00539425 0.0127928 -0.0101323 
-0.00222245 0.0287751 0.0141058 
0.234334 0.0462853 0.059355 
0.00179084 0.0562664 0.0252274 
0.0575688 -0.0490126 -0.0562532 
-0.0103231 -0.0395863 -0.00367076 
0.00437638 -0.0152335 -0.030987 
0.00316573 0.0160462 -0.0386808 
0.0128379 0.00213071 -0.00463054 
-0.0133306 -0.00709331 0.00184284 
0.0234051 0.0756887 0.0429407 
0.0369431 0.0507896 0.045313 
0.0133986 0.012818 -0.00713144 
-0.00474252 -0.0198986 -0.0541623 
0.01589 -0.0100897 -0.0327591 
-0.0725541 0.00742765 -0.1553 
0.00348397 -0.048681 -0.00836569 
-0.0615581 0.047843 -0.0593527 
-0.00385022 0.0103815 0.00488667 
0.00917371 0.00362005 -0.0185004 
-0.0175943 -0.0174467 0.000266994 
0.0303716 -0.02007 -0.0643603 
-0.0065812 0.0166309 -0.0575998 
0.0317983 0.00115631 0.0218747 
0.0125008 -0.00593233 0.026184 
-0.0206417 0.0221502 -0.00987319 
-0.076106 0.0577619 0.0140399 
-0.096748 0.0294874 -0.0192925 
0.0211252 -0.0370214 -0.0294293 
0.0295057 -0.0453311 -0.0323188 
-0.0132945 0.00586025 0.0258156 
0.0600867 0.07935 -0.0417706 
-0.0724661 0.107189 -0.141794 
0.0413609 -0.0642853 0.0338466 
-0.0258008 0.0182074 0.0353266 
0.116322 -0.0771415 -0.139562 
0.0278888 -0.0129548 0.0203341 
0.0138241 -0.0133892 -0.0107857 
-0.331827 0.57574 0.244585 
0.045322 -0.0259278 0.0247398 
0.0221917 0.00158548 0.0218654 
0.131639 0.047222 -0.0268381 
0.00404423 -0.0399261 -0.030507 
-0.109025 0.0740883 0.182859 
-0.0203882 0.0110726 -0.00494522 
-0.0921788 -0.0266771 -0.0404583 
0.0177042 -0.0579364 -0.0100592 
-0.00562557 0.0183072 -0.011457 
0.0791901 0.0623434 0.0508526 
0.0916426 0.0212424 0.138099 
0.0391917 -0.0221786 0.0125145 
-0.0277513 0.0630544 -0.0038656 
-0.0276198 -0.00915986 -0.00171486 
-0.0275969 0.00636185 0.0388223 
0.081064 0.0690797 -0.0194748 
-0.00525034 0.0107662 0.0143632 
-0.00513365 0.0131414 0.00976965 
-0.0381579 0.00600749 -0.00701336 
0.0663839 -0.0415417 0.0390832 
-0.00317147 -0.110204 -0.0844215 
-0.00634833 0.00649622 0.0119681 
-0.0185871 0.066149 0.010304 
0.0670693 0.0181493 -0.0142751 
0.0224644 0.0738571 0.0460655 
-0.0367462 0.0105695 -0.00786863 
0.0385199 0.0256551 -0.0246944 
0.00122398 0.0277027 0.0364507 
0.0804678 -0.0189987 -0.0677369 
-0.0182514 0.0193553 -0.0415602 
0.199111 -0.149927 -0.126779 
0.0519608 0.019419 0.0300478 
-0.138458 0.129105 -0.0138526 
0.0150956 -0.0387359 -0.0148875 
0.000643921 0.00809368 -0.000863643 
-0.000178798 0.0216011 0.00812393 
-0.052795 0.0217492 -0.207907 
-0.00372849 0.0165547 -0.00728244 
0.0106976 -0.0573725 0.0770645 
0.0476816 0.0590715 -0.0142575 
0.034895 -0.0231862 -0.00695799 
-0.015196 -0.00805043 0.0271838 
-0.014691 0.00632185 -0.0255799 
0.0153392 0.00327684 0.0314815 
-0.00708253 0.00148453 -0.00889653 
-0.04459 -0.0440275 0.0244371 
-0.0630787 0.038395 -0.0868958 
-0.0146992 0.00869325 -0.0274432 
-0.0157273 0.0288843 -0.00274415 
0.0451614 -0.00495496 0.122912 
0.123599 -0.0374964 -0.0748135 
-0.0231246 -0.000312654 0.000975311 
0.165716 0.38835 0.0859931 
-0.214413 -0.112134 0.172758 
0.00937072 0.0219829 0.0308459 
-0.0854423 0.0229322 0.00908421 
0.0393452 -0.0329354 -0.0146499 
-0.0609952 -0.0368781 -0.0404388 
0.0476316 -0.0347433 -0.0840882 
0.013704 0.007498 0.0178776 
0.0171923 -0.0483036 0.0126399 
-0.00380087 0.0684119 0.00625965 
0.0242701 0.0297697 0.0240727 
-0.00460709 -0.0481695 0.00490151 
0.00418926 -0.0146559 0.0296243 
-0.000200036 0.00515976 0.0185965 
0.0392479 -0.032662 0.0537174 
0.00297503 0.0249076 -0.0141551 
-0.0191893 -0.015308 0.0919646 
0.00889269 0.0326158 0.0726402 
0.0289928 -0.00613733 0.0490906 
0.014969 -0.00736966 -0.0128053 
0.072535 0.0322525 -0.12093 
0.0690187 -0.0342914 -0.00368394 
0.00857337 0.0082402 0.0268005 
-0.0111325 -0.0037841 -0.00182569 
0.00853573 0.016822 -0.0126639 
-0.00672306 -0.0158289 0.0570607 
0.0877762 -0.0531815 -0.0421015 
-0.0051133 -0.0374001 -0.0413582 
-0.0360271 0.0246261 -0.0165391 
-0.0507526 0.0306814 -0.0287117 
-0.0240156 -0.0225651 -0.00213521 
0.0105296 -0.0431403 -0.0299348 
0.00210321 0.00554918 -0.00153981 
-0.0738717 -0.0128401 -0.0242026 
-0.0063574 -0.0314058 -0.016462 
-0.00473645 0.000655825 -0.153265 
-0.303106 -0.575809 0.152493 
-0.00155414 0.0851326 0.0519817 
0.0166016 -0.0121135 -0.0447808 
-0.00776618 -0.0210054 0.0342733 
-1.38084e-05 -0.0425199 0.0648582 
0.0262918 -0.0441014 0.00752956 
-0.0328935 -0.0435989 -0.0470255 
0.00231343 -0.0132043 -0.0422495 
-0.06692 0.026961 0.00611559 
0.0331719 -0.0698569 0.00690219 
0.098809 0.00627166 0.16254 
-0.0704441 -0.0197468 0.00569083 
0.000579514 -0.0407734 -0.00536833 
-0.139734 0.0236866 0.0307937 
-0.00307899 -0.030004 -0.0236719 
-0.0129274 0.0145925 -0.0518047 
-0.0391448 0.00191501 -0.0258943 
0.0288229 -0.0301893 0.0588339 
-0.0253907 0.0147452 0.0112376 
0.0501972 -0.0353912 -0.010654 
0.0124875 0.0259934 -0.0107543 
0.00157666 -0.0256746 0.0598421 
0.0236626 0.0564305 -0.100917 
0.0179817 0.012229 -0.00579676 
-0.0143232 0.0281567 0.00870637 
0.0083785 0.00142719 -0.024785 
-0.0227181 -0.0261561 0.0196129 
0.0514755 -0.055189 -0.00832915 
0.0129196 0.0134266 -0.000142462 
-0.00210826 -0.00011995 0.0684579 
-0.0397418 -0.113599 -0.00228385 
-0.0383129 0.0338071 -0.0744918 
-0.0119214 -0.0133638 -0.0258753 
-0.0702162 0.0220745 -0.00635295 
0.0825741 -0.0243184 -0.0582797 
0.0247916 0.00177955 0.0730614 
0.011759 -0.102575 -0.069013 
-0.018593 -0.000126784 0.0261846 
-0.0112508 0.0600627 -0.0448287 
-0.0107688 -0.0567537 0.061953 
-0.0755763 0.0568329 -0.00430261 
0.00244162 0.0494687 -0.0669879 
0.0592785 0.00271556 0.0224929 
-0.0105075 0.0144833 -0.0156515 
0.11609 -0.0673488 0.0144167 
-0.0530391 -0.0540837 0.0119826 
0.0301146 0.0123535 -0.0156993 
-0.3316 -0.218722 0.120536 
-0.0752309 0.143325 -0.017879 
-0.065152 -0.0165651 0.00871283 
0.0167045 0.0121784 0.0261911 
-0.000464361 -0.00234424 0.0250384 
-0.0673001 -0.0211628 -0.0147398 
0.0105055 -0.0155055 0.0073075 
0.00676288 0.0172589 0.0265101 
-0.0085697 -0.109534 -0.0864814 
0.0459813 0.0236998 0.0199516 
-0.039824 -0.0193109 0.0375805 
0.0379742 0.0574008 0.0484698 
-0.0481192 -0.0455303 0.120924 
0.0199559 -0.0226621 0.0387878 
0.213675 -0.0700495 0.0809755 
-0.0324395 0.0173826 -0.0221566 
-0.00875809 0.0366545 0.012741 
-0.0453459 0.0780335 -0.0453005 
0.00604628 -0.00386626 -0.0150695 
-0.0181452 0.00176421 0.0321344 
0.0762186 0.0857723 -0.0348473 
0.0275083 -0.00565644 0.00089677 
-0.0197254 -0.00615054 -0.00542165 
-0.0298982 0.0304516 -0.013688 
-0.0218543 0.059219 -0.0478583 
-0.00512869 -0.117897 -0.0992035 
0.00546849 0.00298125 -0.0370491 
-0.00102204 -0.00712127 0.00943374 
0.0135252 -0.0152128 -0.0635378 
-0.0187861 0.0260993 0.0176216 
-0.0183263 -0.0162489 0.001925 
0.058 -0.062787 -0.0135614 
-0.0464748 -0.0682085 -0.0274006 
0.530977 0.0786069 -0.115959 
-0.0593215 0.00123147 0.0174373 
-0.0273763 0.0175065 -0.0185986 
0.0315445 -0.00554166 -0.039159 
-0.0453068 0.0350772 -0.0128638 
-0.0151675 -0.163945 0.104841 
-0.0719203 -0.00443334 0.0368842 
-0.017545 -0.0156856 0.0128285 
0.00249743 -0.0147667 -0.0201715 
0.0502847 -0.001516 -0.0136267 
-0.038124 -0.0206179 0.0819924 
-0.0209689 -0.00655068 -0.07418 
-0.0219405 0.0327655 -0.0291249 
0.0321196 0.00417721 -0.030924 
-0.0177884 -0.0429067 0.0236005 
0.012895 -0.0268467 0.00447095 
-0.00810944 0.000712214 0.0308386 
0.0213476 0.0112624 -0.0400671 
0.341742 -0.132617 0.085117 
0.0189873 0.00368969 0.0220964 
0.329726 -0.0422948 0.204247 
0.00941963 -4.97543e-05 -0.00160761 
-0.0101342 0.0486533 -0.0876467 
-0.0458717 -0.0395109 0.050634 
0.0379773 0.0303749 -0.0599964 
0.00288434 0.0492172 -0.0947831 
0.00951191 -0.035969 -0.0254551 
0.125512 0.0332557 0.063635 
-0.00565147 -0.0645651 0.132406 
0.0101869 -0.0399457 0.019433 
0.00561329 -0.232227 -0.0993514 
-0.000310907 -0.0527214 -0.00766362 
0.00241729 0.00716082 0.0345386 
0.00467473 0.000922426 0.0578903 
0.0209165 -0.0916307 -0.00981101 
0.030657 0.0273037 -0.017537 
-0.00319334 -0.00554893 0.0261669 
-0.0218901 -0.0281263 -0.0105745 
0.0404038 -0.00453108 -0.00442367 
-0.00224608 0.0292352 0.00692572 
-0.0150261 -0.0250689 0.0025132 
-0.000930917 -0.0409971 -0.0288561 
0.170689 -0.0450785 -0.0176882 
0.00842488 -0.040455 -0.0608461 
-0.122712 0.00902284 -0.102012 
-0.0314809 0.117402 -0.0300334 
0.0213384 0.0612876 0.0463054 
-0.0156341 0.0245477 -0.0274255 
0.00247604 0.0179213 -0.004734 
0.031531 -0.0135661 0.0683248 
0.0106054 -0.00197871 -0.0201836 
-0.0205197 -0.0751096 0.0473345 
-0.00512384 0.00717719 -0.00455809 
-0.00691558 -0.0617644 0.00489287 
0.00580985 0.00833473 -0.0312203 
0.0391262 0.00851921 -0.0244608 
0.0053421 -0.0324257 0.0282744 
0.0201597 -0.075692 0.00744259 
0.0281855 0.027591 0.000535415 
-0.0418641 0.0483757 0.0054572 
0.0362361 0.029634 -0.029673 
0.0229109 -0.00631313 0.0340232 
-0.00430425 0.0614773 0.0692175 
-0.0529255 0.121231 -0.0237062 
-0.00119889 -0.0114235 -0.00277329 
-0.0955644 -0.0168083 0.010619 
-0.00843321 -0.0581441 -0.0380184 
0.0300638 0.00149891 0.121238 
0.00687495 -0.00182631 -0.0125717 
-0.154884 -0.0304955 0.0367156 
0.0271934 -0.0406846 -0.0818727 
-0.0291751 0.0311953 0.000649136 
-0.0490011 0.050134 0.0274729 
-0.00994827 0.0187918 0.00117834 
0.00868927 0.0400208 -0.0295755 
-0.0445357 0.148331 0.0959447 
0.0599625 0.118337 -0.0162047 
-0.067506 -0.0643399 -0.0147208 
-0.0322255 0.048469 4.35506e-05 
-0.0429043 -0.0126007 -0.0224943 
-0.126391 0.124458 -0.0557879 