ITEM: TIMESTEP
1000
ITEM: NUMBER OF ATOMS
2048
ITEM: BOX BOUNDS
0 12.688
0 12.688
0 12.688
ITEM: ATOMS xu yu zu 
6.88024 9.63341 8.59958 
5.90573 7.99268 6.44259 
2.8431 3.66155 10.038 
7.35774 10.9737 4.8238 
8.83103 1.74721 7.40781 
12.1282 0.688054 4.81429 
11.5602 2.61983 10.5267 
5.70804 12.6018 11.7774 
10.5681 3.53612 5.97504 
6.23586 9.11206 7.9319 
0.519772 7.63134 9.1849 
1.01338 3.95559 8.96125 
5.56543 8.54306 7.33286 
12.4159 3.24583 10.2581 
7.48057 4.38023 1.32491 
11.0904 4.6037 1.1332 
2.37747 5.35821 0.703348 
8.58941 10.4901 10.5947 
6.99615 0.183568 10.4173 
10.0409 6.26841 7.22988 
5.43915 7.13756 12.4879 
10.1377 11.9051 4.68961 
7.75873 11.2839 3.80345 
2.66689 8.96259 7.76131 
5.23246 6.84275 4.92195 
2.6668 9.15817 11.3904 
3.10204 5.56809 9.60171 
3.40895 6.87258 0.629247 
7.18351 4.34858 9.92056 
10.9747 10.7422 8.60236 
6.44299 10.3992 11.2838 
9.12651 9.51856 10.9656 
5.0683 2.53586 5.8736 
7.39825 3.57674 0.55766 
8.28661 11.3276 6.96709 
9.26277 9.95675 8.95341 
2.06627 8.83465 8.79473 
7.54579 0.976847 8.50016 
0.807978 0.875218 0.451955 
5.04337 5.80691 3.24129 
-0.0546141 1.51248 4.23214 
7.28349 7.29804 0.682521 
6.12174 11.9074 8.4069 
2.20364 10.0089 10.7691 
5.47925 10.2886 2.86703 
3.70071 6.27675 6.89679 
5.95122 4.38304 4.87277 
4.98325 12.5273 5.55455 
7.01813 4.62504 0.370759 
12.4954 2.44198 3.65054 
5.09251 7.5729 7.72333 
10.5525 5.3435 4.78245 
3.73691 6.28756 1.55006 
10.6995 11.1932 7.14449 
8.62069 3.37234 9.75706 
4.50037 6.67291 10.3057 
0.091225 0.0346202 11.1968 
11.5921 12.2515 10.3981 
5.62608 0.650002 6.00126 
8.99944 11.2466 11.3959 
1.76956 2.31123 4.27863 
2.03171 7.39286 3.51253 
7.49064 1.2925 3.73327 
2.9439 4.55575 1.1525 
11.5985 10.6389 6.90698 
10.8887 6.01767 6.5332 
11.5924 9.11764 3.92521 
2.81149 6.00177 8.08166 
1.51283 4.35919 5.11487 
5.76003 2.86942 0.957626 
1.59121 6.4128 3.94386 
3.50756 1.98779 11.1321 
8.86552 10.7704 0.822539 
3.61775 5.05411 4.07714 
8.0209 0.00447766 8.21812 
9.24243 10.2087 2.65182 
2.01008 2.85041 1.56609 
0.153256 3.83055 8.23 
11.2565 12.2151 7.59025 
11.9834 4.58811 11.0417 
4.85155 1.57627 7.52137 
7.0491 1.28975 6.86962 
0.305929 7.93242 11.0308 
5.80082 3.17761 3.08765 
6.59386 8.5413 7.06083 
-0.0154528 10.9533 11.9022 
9.24792 9.33175 12.0102 
6.25318 1.04882 1.38177 
1.56655 9.20975 6.08265 
1.67905 11.0374 10.5697 
2.62565 12.5691 9.80709 
3.85925 10.6213 5.68361 
7.14715 11.9705 1.30124 
12.2829 1.0255 8.29793 
5.83506 7.50568 4.35594 
4.88915 3.26581 2.46167 
5.66147 1.39997 8.22857 
8.13316 3.51151 12.4554 
4.85366 12.1984 2.93414 
12.1782 6.00322 6.34664 
8.61931 5.64836 1.04275 
7.15709 2.80534 12.0304 
0.817014 11.1606 7.86407 
6.22452 11.6229 6.5874 
6.67991 2.23072 10.3192 
0.787636 3.48581 2.04128 
4.28086 7.13593 1.21356 
0.21469 5.61202 11.8611 
7.87754 7.57451 6.35724 
11.9904 8.39534 1.51867 
2.29927 5.39952 8.83891 
11.4248 7.65556 5.57479 
2.13368 1.41437 12.7624 
8.53148 6.99172 11.3799 
6.27552 0.773791 0.334602 
6.89575 4.20635 6.36966 
0.635255 7.88089 0.176522 
3.2071 7.44591 12.4283 
11.8248 4.04941 7.00154 
1.06347 10.6364 0.778135 
8.89963 1.08245 12.6574 
8.35046 0.517022 9.15635 
3.541 4.75929 7.5705 
2.49117 4.96367 7.85658 
12.1519 0.813325 11.4945 
9.84014 5.22541 9.26787 
2.6331 11.5961 6.64381 
4.92648 5.97638 7.40247 
8.56173 5.57558 3.96234 
5.32741 2.24533 10.5661 
5.97951 4.3842 12.3914 
4.33608 5.39513 8.785 
2.11308 1.84958 7.02711 
2.72904 5.45384 10.7277 
9.31897 0.189432 3.77462 
2.94668 5.62367 3.48005 
3.48344 7.26509 8.79389 
2.97759 1.2434 7.39952 
0.601989 7.41162 2.51818 
3.6426 7.94363 1.55737 
0.299802 7.66554 4.11047 
11.8873 10.6873 2.91971 
3.65918 1.8978 8.35877 
11.9684 9.97112 11.0492 
11.3145 9.72126 3.05734 
3.35487 7.97498 5.0583 
2.49512 1.69623 10.9109 
4.91291 9.22698 0.506443 
10.8363 11.8529 5.62709 
4.06998 0.910093 8.78395 
8.50858 0.257291 4.56597 
0.785868 8.52967 6.2237 
5.99411 0.377656 10.8494 
2.92571 6.18028 6.15299 
5.36357 11.6414 5.94437 
8.04246 11.7347 2.80441 
7.72106 10.3257 1.27089 
12.1833 2.99232 8.48749 
9.33434 2.79273 2.66155 
12.6307 8.41244 8.67397 
1.78729 1.40259 8.56186 
0.167552 9.75583 10.4523 
6.24244 0.128951 1.96016 
1.68745 11.5874 11.5278 
0.312058 1.93043 0.0639526 
11.6032 6.58675 10.6783 
9.9471 10.5551 8.37485 
11.1476 6.04781 5.42628 
7.71292 3.5578 11.4992 
12.3722 12.1287 6.06443 
6.81908 8.05073 10.9737 
10.2445 6.69969 3.0362 
5.7271 8.36317 11.0431 
9.81165 3.41189 11.4377 
1.29248 8.96319 8.02604 
12.585 0.0287667 4.08732 
3.82526 5.42872 2.27858 
9.07879 6.07991 8.96765 
1.31506 1.25646 7.5719 
12.9028 1.67963 7.46056 
8.09492 4.80139 8.79181 
7.56251 5.51686 0.954151 
5.3518 1.16031 10.3556 
3.67913 7.269 4.28675 
2.16379 0.220923 1.5892 
2.03735 7.25502 10.8293 
7.3837 8.90291 10.5759 
3.36053 4.7604 5.10721 
8.74175 0.38919 11.7053 
2.38775 7.38978 9.6554 
11.0314 10.0653 4.05026 
9.88695 0.6153 11.3845 
5.42799 4.19115 7.87731 
1.27629 12.2899 1.87793 
2.71819 8.50384 4.31077 
6.1412 1.87036 0.650933 
12.5655 6.21753 10.1596 
7.03214 6.22393 11.8983 
7.79476 9.6437 5.98167 
1.58093 1.17268 10.6778 
4.23606 4.01343 12.6834 
5.41139 1.36368 3.28386 
3.82843 10.2692 6.73718 
3.0589 7.15619 10.4601 
0.522978 9.68408 0.77048 
10.5928 0.470522 12.2643 
3.74643 2.33591 6.31801 
12.3111 3.41857 5.20451 
7.04757 9.05305 12.4996 
4.36703 4.29073 1.07903 
1.56607 10.0227 1.75456 
0.992297 2.94426 10.9395 
2.88623 3.84212 2.80527 
2.35931 11.6028 3.60021 
0.773495 5.49658 1.85483 
5.25322 2.61269 8.85564 
9.40021 9.45751 3.44886 
9.08012 3.76918 6.97879 
4.67184 2.53605 12.4335 
2.38019 11.876 10.7499 
5.65875 11.0496 4.23393 
5.53911 11.4173 2.3004 
6.44115 2.3576 2.65592 
5.78938 5.07955 10.4712 
3.89259 4.87575 12.0221 
11.136 0.969753 4.4999 
3.89428 5.99426 12.3693 
7.61062 5.29972 9.57558 
6.53128 -0.0824475 9.4599 
10.924 6.94592 2.24166 
11.5671 2.71879 9.4579 
1.60191 2.76904 6.27448 
10.2126 2.00665 2.59375 
4.96874 8.26949 9.09539 
3.01743 7.81392 3.56416 
9.1708 6.68635 2.70636 
8.05997 8.61585 5.85423 
6.17227 3.00301 8.53918 
11.279 6.43519 3.41305 
7.50178 2.00415 -0.0208465 
6.84215 6.30389 1.3394 
6.27561 1.5347 6.15403 
10.0109 8.37893 0.853784 
11.996 11.6911 12.1813 
9.063 8.23411 3.88336 
11.3715 4.81591 9.34686 
1.04613 8.97975 3.44628 
7.18177 1.74518 11.5008 
9.77929 11.879 3.65737 
1.14587 5.61927 6.7111 
2.19743 7.58797 7.07492 
6.13356 4.13219 3.42212 
3.05348 11.7183 5.64339 
11.5419 7.21749 7.83455 
10.7482 0.263844 0.634495 
1.92153 10.6547 8.00769 
12.2613 6.43081 12.0512 
7.59546 12.1395 7.36409 
0.244137 4.06877 10.8215 
8.36778 8.26244 4.68381 
9.74836 4.52631 4.57779 
3.84389 7.89574 0.478579 
4.10271 3.44315 1.68794 
9.47838 2.16624 1.80462 
10.229 2.4496 6.31822 
10.252 9.88082 2.96128 
9.54304 8.71637 10.3292 
3.4876 11.5949 1.69357 
1.49934 4.77741 2.27624 
12.5119 9.36521 5.60635 
8.05099 11.3912 10.8996 
3.6732 1.07171 11.6719 
9.78085 7.00883 12.4054 
1.08929 3.67283 5.86838 
2.52589 7.09292 8.20102 
0.667046 2.97169 8.70132 
8.09093 7.83671 2.50203 
0.628694 6.7546 3.68181 
10.7956 11.3223 1.67139 
1.823 10.3948 12.6892 
1.33432 4.98652 9.21883 
8.41018 3.92449 5.19071 
10.814 5.67413 7.71941 
8.34003 11.6622 9.88244 
4.93146 9.9279 6.76629 
2.54275 0.846084 2.8888 
9.87274 6.15564 6.18143 
3.00529 9.3541 10.3787 
10.7432 0.194823 10.5951 
9.49964 5.86661 10.1374 
0.795131 12.0644 5.92584 
2.19049 1.48837 3.72988 
10.9605 4.82174 2.94123 
8.13273 5.03852 1.84834 
12.2026 10.4368 1.88497 
8.60688 4.76234 6.86672 
9.15148 10.6264 5.4503 
12.3742 11.5524 10.0903 
12.2778 0.494418 1.59023 
11.232 3.40084 2.60361 
6.6351 4.79387 7.60664 
2.09819 11.8492 1.33797 
1.2832 11.3778 5.17763 
1.62783 7.63719 8.88291 
12.4584 7.41731 5.92952 
2.31645 2.45743 5.16857 
0.781881 4.69397 4.33637 
5.27122 8.63845 2.69632 
11.8302 12.4078 2.15625 
9.5639 0.299134 12.3627 
10.5652 10.6973 11.3949 
3.07216 1.0144 8.42128 
8.82791 5.98411 7.92421 
11.8579 1.90821 8.83406 
2.66305 2.58078 6.13896 
1.96851 4.36476 8.60233 
6.68807 10.0739 7.63246 
7.38506 3.73323 5.39083 
7.69667 12.7267 5.47755 
2.98094 5.55249 7.09973 
4.42418 1.34527 0.337714 
2.51119 0.855144 5.69485 
4.99827 5.74415 10.4313 
10.0838 2.50907 12.041 
8.20349 1.6612 0.797796 
12.1659 9.96345 0.520837 
4.04801 7.76063 3.32889 
12.1892 5.79816 11.1074 
8.13727 1.65761 9.12504 
11.5113 5.25365 6.03956 
0.624039 0.454435 5.82189 
4.12626 11.5636 11.7659 
1.7101 3.98348 12.9309 
5.10186 11.7303 4.8585 
11.1675 9.6719 8.71643 
3.04107 7.63077 11.3764 
1.62827 6.47761 11.442 
3.82028 4.70548 9.46483 
5.43493 3.22608 5.11014 
2.51726 6.31383 10.1281 
5.07106 7.58112 3.05114 
8.05091 5.71394 6.85592 
11.0013 8.30196 3.50805 
1.08246 6.58246 1.89669 
6.19078 11.6495 4.9922 
1.84821 2.85807 7.36452 
0.699502 1.16584 8.51074 
11.8419 1.71379 5.02156 
0.731245 0.928106 11.313 
3.76292 9.9085 0.567657 
3.44595 7.82283 9.75896 
10.5897 2.75041 11.0654 
9.26572 9.09415 13.0476 
11.4941 1.05377 0.787414 
3.64014 11.0146 10.9021 
10.3105 7.74917 11.8152 
3.79959 9.16039 11.5266 
10.4033 7.71991 5.22327 
2.82739 11.4622 0.66387 
2.62094 2.01424 8.01145 
4.75205 -0.0416094 4.34884 
1.61978 1.81572 1.78275 
1.377 12.1552 12.4193 
2.42146 11.2801 12.257 
6.80702 0.607278 5.87019 
7.97311 10.138 4.10931 
8.81337 2.30945 9.74447 
5.75005 2.48296 6.75922 
2.30277 8.04816 12.6027 
12.2648 2.95327 0.537426 
11.9403 6.74185 5.23424 
1.65996 10.1815 6.51627 
0.690692 9.78723 6.17032 
8.01271 11.3702 1.08025 
6.74825 3.12096 1.35156 
3.71241 3.03645 -0.0399087 
2.89717 11.7316 9.00967 
4.64987 0.248094 0.669672 
4.46075 1.38479 10.9196 
2.87008 12.4463 3.16557 
11.0639 5.41756 3.80404 
2.01706 2.43528 8.75696 
6.03814 12.1868 2.89456 
12.7762 2.19377 1.06693 
1.69574 0.468809 -0.0104356 
3.92414 5.85582 5.87076 
1.96702 7.25604 1.33992 
10.606 12.1776 6.7004 
6.04825 4.71477 0.795933 
5.26411 5.71144 8.36579 
4.41677 7.37764 9.44902 
12.1428 4.58083 5.55279 
1.15662 12.6078 5.06956 
0.0155873 6.51096 4.52575 
5.68702 11.9217 9.40463 
9.7277 8.61585 11.3727 
5.3402 1.03881 9.22798 
4.61521 0.300094 10.5771 
3.4758 12.1648 7.06412 
3.01905 7.09129 1.67459 
9.64536 12.1531 1.9816 
0.10583 8.64461 0.851038 
4.57616 10.7339 7.44096 
2.52298 0.933777 10.1644 
5.36481 3.9301 10.0476 
1.86209 4.39844 6.14502 
3.5102 8.45249 10.7438 
4.00815 3.82033 10.1848 
6.95759 12.409 6.48414 
1.7373 12.0641 4.39222 
6.31584 8.85352 1.52937 
9.02254 7.86032 10.848 
0.065004 7.99216 6.79904 
4.8607 9.13857 11.7426 
7.37271 7.18645 11.3985 
11.3239 11.5697 2.61554 
4.90695 1.94482 9.6192 
0.862211 3.63399 10.0655 
7.04654 0.360164 1.1319 
8.65406 7.13244 1.91184 
11.9071 3.98436 0.684751 
3.37577 4.77024 2.98316 
10.4543 9.18911 3.73331 
2.0534 2.38556 12.3159 
10.5059 11.0112 4.16388 
6.96041 0.668488 11.3626 
1.40731 8.15767 1.43267 
1.76668 2.85275 0.52728 
8.1397 1.81642 11.0033 
3.52794 2.86215 9.87932 
8.82727 11.4037 3.54186 
4.84217 10.3755 3.9379 
3.75402 8.79013 7.90126 
2.5104 1.20242 1.83667 
1.983 1.90537 2.7731 
8.07084 2.92152 5.06092 
9.06954 2.7199 5.36124 
0.447426 6.40221 6.65548 
10.9327 4.49762 7.54722 
2.33474 0.603019 9.04297 
6.7372 3.46838 2.52981 
10.6212 0.403385 6.17308 
0.0917296 12.7461 8.56644 
9.96132 11.5344 10.9381 
9.38992 4.43534 11.4227 
11.8011 8.96235 0.617768 
2.17336 3.56374 3.56217 
3.30295 1.99874 5.38556 
12.2481 11.7747 4.4992 
11.1966 2.94203 5.29282 
2.50345 10.0991 11.9182 
2.90912 2.03974 4.36723 
8.93182 10.3742 3.71938 
5.16399 5.05824 4.95909 
6.69063 3.49404 11.2447 
1.47805 12.5703 0.818894 
7.587 10.327 6.9025 
2.96904 5.51319 1.64989 
7.09899 6.3071 0.272685 
6.75004 10.9672 1.26713 
0.213406 10.3424 5.4331 
1.95487 9.03587 1.74784 
7.24055 6.24259 9.89205 
0.0457282 9.77196 7.56379 
8.93719 7.84337 6.90072 
1.21745 4.64935 10.3367 
7.59519 12.3144 9.22464 
5.14985 4.3897 0.396985 
7.80485 6.98317 9.29158 
2.55433 10.9152 11.2255 
2.89626 7.73771 5.99048 
11.1607 2.63491 8.43172 
2.78428 9.01706 2.41496 
10.2556 2.90231 3.24187 
3.65748 11.3542 6.43206 
10.7161 6.99276 11.1734 
10.4002 6.42075 1.43749 
3.07222 7.91598 7.78246 
1.31914 10.5575 2.62604 
0.785303 5.68951 3.83119 
3.82255 7.16888 2.40278 
5.54361 9.84469 1.27814 
1.33306 7.05382 0.0187488 
2.70145 7.31037 2.66622 
9.94023 10.3085 6.1435 
7.60301 1.99392 4.85106 
3.01744 2.7808 11.7884 
9.85228 7.16332 2.00136 
11.0133 7.45027 10.233 
12.3955 9.46906 1.45492 
1.07955 4.75199 3.2922 
4.42566 6.75902 3.34328 
9.83584 8.49449 3.20018 
6.44012 3.98613 8.24891 
11.8482 7.1712 0.031024 
7.97813 0.744938 11.0456 
9.81549 4.00807 8.73391 
11.7002 9.61114 7.23139 
0.898682 1.84643 3.64049 
0.636394 10.8534 10.1771 
3.94557 1.70234 4.50678 
11.4281 7.93104 0.689684 
9.92385 12.3903 5.74559 
1.07032 6.41223 4.86587 
10.7728 5.69284 8.81966 
2.76966 1.63875 11.9301 
1.68929 12.3776 9.20612 
7.89778 6.54014 1.34557 
4.52008 5.25433 0.140449 
3.5124 3.69372 9.18535 
1.70394 10.9965 4.25951 
7.66948 7.77425 5.30888 
10.2575 0.836139 7.24373 
8.21279 8.8467 12.4709 
4.33887 6.23056 0.599732 
4.60315 1.48555 11.9863 
10.421 0.0144934 3.96064 
4.10412 7.85459 6.05034 
0.674347 10.6541 4.4985 
6.63624 11.5366 2.25237 
0.0659927 9.08382 9.55238 
4.45462 3.4081 6.32072 
11.2717 1.70352 2.85852 
1.54306 7.19724 7.84517 
3.38356 3.34404 6.35247 
7.06121 1.64152 9.43839 
8.3264 1.35185 6.5167 
1.6747 4.79084 7.14655 
4.84792 10.25 8.41926 
6.54505 10.2634 9.4492 
3.75992 6.88745 6.03146 
8.17808 2.51052 11.8621 
8.14589 10.3176 5.22122 
2.35152 7.01864 0.334046 
10.0251 4.78015 10.4803 
12.3896 4.73381 0.138956 
11.742 8.86475 9.18512 
6.53487 11.003 10.2625 
7.52607 8.84549 4.25625 
3.49778 11.032 7.44155 
11.1733 10.3657 2.12927 
12.4631 7.58623 0.884792 
9.77159 7.17316 6.58053 
11.3292 1.49059 1.79213 
10.0098 1.01079 10.4037 
4.07051 7.87495 11.8671 
8.91228 6.08825 5.76439 
4.86951 8.02772 0.177965 
8.49352 3.24434 6.12964 
11.9372 6.58539 2.53011 
1.4444 0.98681 3.12683 
5.08826 8.94958 1.64748 
8.76463 12.4877 5.47286 
2.3953 3.65726 0.975809 
9.11622 6.2983 4.74011 
10.9274 8.69983 1.34243 
10.7313 3.5458 7.0699 
5.53574 6.73581 3.62602 
10.2278 9.53151 12.4273 
0.135879 2.08437 8.41768 
7.731 3.1321 3.00124 
1.21483 12.5281 11.3174 
0.668449 2.9591 0.33434 
4.64399 9.21514 4.38468 
6.47769 12.2719 7.44926 
4.15717 5.50967 4.88197 
10.8565 1.92375 9.29049 
5.53876 0.432974 2.75289 
2.9961 4.1303 8.33639 
12.5196 11.6462 8.25302 
7.30645 11.8624 10.2194 
3.23284 10.0373 11.1542 
2.32306 10.735 2.96156 
8.6147 9.88741 12.6538 
11.5541 9.2395 2.10573 
0.630976 0.320165 1.36024 
11.7269 1.62826 9.87519 
1.64273 7.1964 5.3499 
4.06391 5.19041 10.7662 
7.19731 0.441664 7.5025 
6.79972 12.5953 4.92253 
6.36992 5.13996 6.57094 
9.3116 1.06288 6.7869 
2.1187 9.47897 9.69645 
2.3837 12.4987 7.24024 
0.507017 3.45568 11.7116 
6.45726 10.9821 5.75658 
3.89788 5.75826 7.80972 
2.70006 4.33209 0.1312 
5.36511 2.2896 2.64621 
7.70562 7.51248 4.26005 
11.547 3.83507 4.63887 
11.6443 9.44023 6.1924 
3.34926 2.85715 2.64068 
6.8222 4.96959 3.57502 
9.30868 3.2353 1.56489 
8.99651 11.8333 0.921043 
5.79157 4.49912 5.94298 
7.20071 11.8018 8.32033 
7.96304 4.22955 6.16435 
9.46794 7.02908 5.5289 
9.21594 7.82418 2.55337 
5.9356 7.32713 5.61572 
4.53563 12.0271 6.55191 
0.379567 8.01761 1.67441 
5.9008 10.3361 0.433344 
8.79358 8.70799 2.96417 
6.1873 11.1213 3.21542 
5.88854 8.17716 3.50067 
0.645699 5.02691 7.43369 
4.77037 4.31072 2.09441 
10.4254 8.28845 9.79593 
9.35254 11.6169 5.33389 
5.76881 9.82256 5.88681 
6.58763 5.57263 9.24223 
4.45083 11.4845 4.05192 
11.4318 6.1675 1.64452 
10.2609 12.1842 12.6704 
3.50798 11.1942 4.85491 
11.9156 5.37865 1.01159 
1.39268 9.65802 8.90419 
10.0176 4.42239 5.59286 
12.6352 10.8261 0.910529 
6.99512 3.71798 7.3464 
6.95568 10.4625 3.89097 
5.34102 8.94134 6.36569 
4.18937 9.76824 7.6707 
6.33683 9.13124 10.6331 
5.28834 3.04511 4.02488 
12.7011 4.51211 11.8413 
11.0322 1.92529 5.81243 
9.8936 8.50178 -0.250533 
4.12315 0.364117 5.16101 
6.60244 2.38943 7.70578 
3.56021 0.923768 10.5749 
2.95143 5.30251 12.4484 
0.649008 6.01403 10.9594 
8.51517 6.02041 2.11229 
8.94065 4.2643 12.4282 
1.09729 8.76743 0.555456 
1.205 7.62818 11.7959 
12.6333 2.42814 4.80717 
3.13192 5.80505 5.14131 
9.47989 0.671253 5.80355 
6.03586 4.94117 8.50737 
1.58867 11.1084 7.09207 
4.41515 6.28775 2.42423 
7.41439 5.19252 6.15786 
10.6846 8.89961 2.66843 
1.08782 9.60101 12.5019 
3.56204 6.18656 10.6088 
6.73634 5.1636 1.50791 
2.21884 7.18956 11.9564 
6.47516 4.09341 1.58534 
5.18703 9.11395 5.32586 
8.30837 11.6106 8.07218 
4.29012 2.35045 2.67251 
9.00328 9.60518 9.91579 
4.32638 10.9443 1.18899 
1.89834 11.5045 8.63391 
11.144 11.8355 8.67934 
9.56285 3.27078 6.14153 
1.75925 6.28325 8.35554 
1.25838 0.239745 8.30752 
10.1884 10.8876 5.22513 
4.29688 4.00074 7.47779 
8.88126 9.68086 5.7959 
10.1529 9.63283 11.34 
6.09472 7.5769 10.3475 
4.57662 8.94684 7.10533 
0.78597 8.98771 10.9813 
10.9137 0.935526 9.76038 
12.556 6.45732 9.0266 
3.0833 11.4556 2.75916 
4.77604 7.40225 4.09681 
3.18696 8.8572 3.39533 
11.3227 12.1927 1.16229 
0.236009 12.3827 2.15411 
6.67272 6.7757 10.7019 
10.679 5.41445 9.89122 
10.2162 6.2199 11.7767 
5.92912 2.92177 9.63738 
11.5016 1.69098 7.86162 
6.10881 6.0774 10.083 
5.22298 12.4127 1.9557 
12.6297 9.12904 3.62066 
3.24681 9.52775 12.3742 
0.775461 2.54572 9.98945 
4.10372 5.31758 1.25105 
12.259 10.7094 4.68359 
2.3152 5.67874 11.7099 
4.80346 1.43824 2.40952 
10.0532 8.33222 1.96752 
2.48578 8.05888 1.90752 
11.9152 7.01346 9.73604 
11.3261 12.349 12.6608 
8.00681 8.22764 3.51869 
8.41579 10.4904 6.27009 
9.04479 12.263 2.89486 
8.15068 9.27342 5.01496 
12.1821 7.41494 8.76078 
5.26814 0.697627 7.10046 
2.54745 7.34555 4.42568 
10.0842 0.976318 4.21631 
9.01339 6.87047 10.3718 
10.0346 3.71836 3.95786 
12.2262 7.68656 4.85994 
2.41996 9.8237 8.48717 
11.9276 4.33937 2.65672 
5.84321 3.16829 10.6663 
7.80826 3.57149 10.4185 
4.78229 4.81189 9.88455 
1.86464 1.63526 9.64947 
9.22295 11.2046 8.93254 
5.66278 3.92615 11.4355 
7.86999 11.9797 4.7031 
0.152259 10.4899 8.42173 
9.75006 12.5467 10.6011 
6.27303 3.71667 0.530221 
8.19042 6.52556 4.14883 
11.3276 0.882372 5.54793 
7.85513 6.19079 5.91014 
8.0071 7.78729 1.36851 
2.77525 10.7035 10.1784 
6.53488 1.39666 3.2416 
12.6427 0.978307 12.4599 
5.48967 8.45691 10.0248 
5.16065 0.766292 11.4213 
7.69362 4.13456 2.39402 
7.54446 4.69941 7.08414 
7.9445 10.6561 0.250721 
9.18852 4.83043 0.630767 
3.88247 11.8244 0.734102 
8.71752 4.30359 7.85741 
3.34921 6.7877 3.38008 
10.1225 0.361151 1.51441 
7.4383 6.83949 3.44956 
2.91999 6.40056 12.3249 
5.67417 0.123363 1.01289 
11.227 12.6631 3.02006 
3.98138 11.8717 9.14544 
8.28728 10.7159 2.89659 
3.68471 2.74822 4.51246 
6.56776 5.29604 12.2914 
0.94527 1.94875 5.86583 
5.674 9.03558 4.19345 
6.15751 0.821597 5.0898 
7.42319 2.67229 10.9748 
1.91937 9.05447 4.9794 
4.03342 9.74528 5.05019 
5.27881 12.1606 10.8514 
10.62 7.60144 1.3658 
9.97119 0.966431 0.440972 
7.92876 7.95892 10.8713 
9.21272 1.79532 8.88782 
2.59281 6.58087 7.17691 
6.36713 5.56332 2.4313 
12.7818 2.15796 6.47082 
8.48603 7.25071 3.32497 
7.46933 6.08829 10.9391 
3.42636 0.530316 6.7592 
3.32745 0.908073 9.51576 
4.15364 1.40837 3.25836 
1.99648 1.76178 5.92912 
3.28403 10.6688 1.16131 
11.4947 11.639 6.48612 
11.5803 5.2275 7.11099 
7.09501 11.9969 3.19292 
9.21555 1.02622 9.64354 
2.12132 8.39134 3.05252 
11.3662 4.9507 0.178094 
3.74912 12.4903 6.01914 
0.845843 9.22842 5.28272 
0.552665 7.35334 5.13683 
12.2854 11.8521 7.15589 
4.93769 12.0252 8.62958 
1.36548 6.76302 2.93372 
8.32097 9.26195 8.04115 
1.69836 6.07773 9.39154 
10.4985 10.8233 10.2737 
7.81285 3.63922 4.27934 
0.442618 3.13653 3.04514 
0.344141 5.48061 5.99519 
2.65685 3.10732 8.06674 
7.12045 9.31529 9.58068 
8.63696 12.1385 8.95559 
2.1725 10.5976 1.02048 
7.12102 7.25848 1.74467 
4.09603 7.69703 8.02709 
12.4138 12.646 12.2256 
6.31112 0.516106 6.81986 
3.14772 1.85062 10.1122 
1.75358 8.38911 9.74752 
5.70826 2.60398 12.6239 
3.01237 8.79562 1.39003 
2.75635 0.734113 11.2794 
12.3678 4.7291 7.71964 
6.7405 6.06532 6.18697 
1.62157 9.42377 11.5836 
9.23969 10.9155 6.70669 
8.19554 5.77836 4.96857 
2.36151 3.51277 6.62318 
3.88131 8.15706 7.05274 
8.66426 12.2829 7.27043 
12.525 5.79636 0.187604 
9.27924 6.39802 1.46069 
5.52049 6.58419 10.8702 
2.68578 12.591 6.22455 
6.7949 11.5338 9.32182 
11.2843 9.71513 1.21253 
11.2039 0.622379 7.68852 
8.5186 9.14987 4.00238 
2.95532 2.1936 0.167524 
9.98788 4.09194 12.3217 
12.9472 0.0172743 6.74118 
4.48307 3.41387 4.64123 
12.1471 12.1056 9.21103 
8.27133 3.99257 3.32598 
11.234 3.09857 0.77355 
2.16752 3.94305 7.61281 
6.85338 5.27984 10.4005 
11.7272 4.5198 3.71555 
9.1874 1.12445 4.8862 
3.97066 3.80777 2.7253 
0.337913 6.3664 2.6726 
3.26047 1.6492 1.14416 
11.8617 9.5176 10.0693 
11.7999 1.69144 12.0797 
4.94655 11.9335 1.03763 
10.281 4.86671 0.369983 
0.452623 -0.146126 0.373914 
5.90617 9.33445 11.5717 
8.49461 6.90971 8.36182 
7.73023 4.775 5.10684 
5.04027 2.16109 0.664827 
0.539918 4.82005 8.51416 
10.1317 2.04284 0.341857 
3.47541 10.8829 9.32143 
12.353 4.46428 1.61268 
3.66381 2.29177 3.5739 
12.9114 11.5207 0.120491 
12.0799 3.43184 3.25615 
4.40938 0.443563 2.32125 
1.77533 9.43859 2.73625 
10.2681 3.11062 0.246353 
9.96102 4.20199 6.6087 
4.93999 5.96142 5.45282 
7.94771 6.89384 10.4921 
7.93369 5.1943 10.5895 
6.51657 5.29565 4.55048 
5.36182 5.43956 11.4967 
4.848 2.98994 9.88359 
3.116 3.16482 5.34626 
0.812715 11.0549 11.2329 
7.82742 0.778107 0.36402 
9.52688 1.80584 5.62455 
7.98676 11.0518 11.9297 
9.43594 12.2586 11.5774 
2.16762 1.45264 4.83921 
12.5262 10.8532 7.43672 
10.2922 11.1944 9.27623 
4.66899 0.170536 9.23058 
1.8243 4.10835 9.6564 
9.56088 9.04245 4.40541 
5.90421 10.1068 3.81228 
7.50174 11.0431 7.66574 
8.98852 0.619537 10.6671 
7.07079 1.07291 12.3751 
1.66607 3.4386 4.51874 
1.98988 8.14709 7.96523 
3.976 2.28689 0.653478 
12.4887 7.24186 3.24157 
8.93122 10.9393 -0.228692 
4.67587 2.3647 6.84941 
2.73181 10.6805 4.04744 
0.411759 0.851938 3.50938 
5.33136 7.33356 0.923725 
8.69411 7.78356 5.69881 
1.82105 4.98191 -0.116577 
3.56054 9.23171 6.93338 
10.5989 2.84628 4.26077 
3.15175 8.45794 12.0134 
7.51551 2.48224 0.996561 
0.726309 9.6067 2.57701 
9.15933 6.88178 7.46125 
4.89298 10.5626 2.03077 
8.97976 8.79167 6.40047 
11.2846 7.98777 12.2553 
4.24878 11.1215 10.0342 
0.0605068 3.8829 6.09825 
8.94769 7.06791 9.30208 
6.28083 9.32069 0.546114 
0.515678 11.8987 10.669 
9.22051 7.87692 0.298117 
9.19539 8.92297 8.52356 
2.72501 12.201 2.13077 
4.38586 3.14075 3.46784 
6.88146 10.7525 8.51026 
0.0687425 1.70764 11.6621 
5.813 1.49583 4.32956 
2.68728 4.54833 6.84745 
3.49166 3.7136 0.765768 
11.2281 3.65679 11.0835 
2.88708 3.68938 11.1105 
4.61586 10.9577 6.37416 
2.41362 12.3461 0.199676 
9.27694 3.19977 12.427 
4.83255 2.65877 1.59967 
5.43764 10.9617 1.20539 
0.341925 12.0066 3.41733 
11.6789 3.73896 9.10867 
1.32903 0.237468 7.13613 
11.4635 6.06836 0.023637 
4.56177 0.513392 6.22974 
7.43094 5.80142 2.08787 
1.60369 10.4968 11.6091 
11.9485 2.6755 1.53392 
2.29483 9.86342 5.64985 
11.692 7.21621 11.5996 
0.245921 1.10688 6.55591 
10.4324 9.59966 1.88282 
5.37822 9.96069 4.74278 
7.2613 9.82626 4.84894 
9.57686 3.83506 0.624877 
11.6847 0.686409 10.49 
12.327 7.00269 6.95423 
6.2985 4.1553 10.5023 
2.14507 8.22415 11.5283 
4.43132 6.06492 11.2991 
2.37258 11.0198 5.09242 
12.0503 8.44475 6.03915 
3.97456 8.90197 1.95254 
5.66491 5.93954 4.47279 
7.21995 8.32002 1.89936 
10.6868 0.113057 5.03421 
0.875773 1.81607 4.76531 
10.9463 5.89249 2.57196 
2.15849 4.56562 3.08797 
12.5481 5.75121 7.30616 
4.0094 7.49182 10.808 
3.39474 10.5571 3.20773 
7.23193 12.5021 2.21273 
5.0832 0.799349 5.07211 
2.71076 0.574111 12.3345 
3.97068 1.00753 7.72449 
0.850797 10.921 6.0733 
9.22022 11.2685 2.52692 
12.5665 12.1493 1.207 
10.5735 2.71274 9.99172 
5.30749 11.4769 7.09839 
11.6471 0.0849779 8.51893 
0.506916 10.0847 9.3993 
9.18356 3.76205 10.584 
2.0665 9.21442 3.83104 
0.422687 0.651528 7.60833 
4.39727 11.7863 7.63184 
10.869 9.29534 9.72178 
0.75878 1.91298 10.8953 
8.69186 6.89315 6.41248 
2.6656 6.47255 9.06846 
5.93202 10.097 8.41601 
7.735 2.60139 3.97725 
5.1215 11.1958 3.2686 
4.31562 10.173 9.35398 
3.39926 11.495 3.8162 
4.81388 10.228 10.3185 
1.64205 12.0374 6.58607 
6.00748 2.48974 4.65308 
6.08183 10.5432 1.99768 
4.93755 4.54236 12.0144 
2.26145 3.00224 2.60141 
0.250054 2.51585 2.10235 
5.49429 3.47946 6.21399 
10.1264 7.83488 10.755 
9.20559 11.0637 7.80798 
0.925922 7.09263 10.9166 
8.58544 3.4965 2.36798 
10.006 7.4832 7.58463 
5.51774 2.39239 7.82348 
11.01 9.03464 7.83938 
0.801121 4.91378 11.2645 
11.5247 3.7042 1.63165 
11.6638 3.39203 12.4663 
8.73883 4.83789 4.72599 
3.91798 4.17065 11.1978 
9.82602 12.1166 9.05939 
10.2614 9.43565 0.82861 
11.4125 4.32974 11.965 
2.70828 9.6434 0.783422 
4.80145 3.43637 10.8651 
9.90477 1.87117 7.17402 
3.08464 10.229 5.0282 
3.48907 3.81194 4.56272 
5.68801 0.127502 8.78381 
0.877707 6.08439 0.0893115 
8.46482 5.13435 5.82519 
10.8526 10.1198 7.74132 
9.71204 3.33216 9.61898 
6.30835 8.35732 2.50409 
2.9806 1.58759 6.40673 
7.30477 9.1105 7.69008 
1.49496 10.3331 9.78272 
10.6277 6.67178 8.04667 
9.79926 1.94401 4.57581 
8.25551 0.664013 7.36152 
5.23894 9.50272 7.74547 
7.6656 10.0732 8.03021 
9.4502 3.66648 5.1397 
6.66376 9.43563 4.07234 
1.42943 12.0244 3.38087 
3.94874 3.03876 7.18548 
9.04811 7.85737 8.03244 
12.6089 11.0518 3.69606 
4.37738 7.59963 5.05646 
7.37268 2.11216 8.45783 
2.1585 5.46508 6.38752 
1.07499 4.25856 12.115 
3.31327 5.1532 8.5782 
2.01139 0.247749 3.70901 
2.7691 4.52859 9.34894 
8.04761 9.47284 11.1986 
10.3504 3.92136 2.9593 
9.06417 -0.0424443 9.77885 
11.1831 11.7581 4.61594 
0.00343408 1.48095 9.33707 
10.4942 3.68646 4.91954 
11.1285 9.85897 11.7738 
5.51597 0.166146 9.9123 
6.26684 6.89931 0.600355 
0.867823 3.1923 7.67615 
0.0851681 12.4868 5.13091 
5.617 0.494907 3.881 
6.74746 4.70505 5.46714 
6.7448 1.3499 7.9257 
5.81997 10.8089 12.1421 
6.01482 6.23261 12.2564 
11.8751 2.16098 7.00339 
0.428605 8.43287 11.961 
9.88865 7.07707 4.48695 
12.1076 10.0729 3.79355 
8.34317 6.88995 5.23892 
1.9252 11.6227 2.52594 
4.37368 8.32514 10.0075 
0.843551 7.24467 1.04725 
4.13724 5.72266 9.79589 
10.1493 5.6979 3.26751 
8.15508 6.27312 0.314655 
8.56302 3.52836 0.742211 
6.48209 12.3364 0.525215 
10.9753 6.92542 4.80286 
9.12292 1.2622 3.83747 
7.22671 10.9299 2.96139 
8.78637 4.24884 1.49745 
4.47926 1.57465 1.38957 
8.40827 12.0593 11.8201 
10.4779 4.3862 11.3951 
9.93635 4.92697 2.54905 
2.28481 10.6544 9.16446 
1.30243 1.14284 6.48907 
8.04819 0.0716648 10.1368 
6.04537 7.33653 2.77065 
12.5563 2.09187 10.3078 
0.823971 2.42183 11.9178 
10.2367 3.15559 2.18275 
0.514333 4.58306 5.40568 
11.0339 2.47695 2.04509 
0.8171 1.68725 2.55727 
0.215998 5.32951 2.94406 
5.25427 9.29527 10.7049 
3.02486 3.52155 1.81576 
7.39125 2.09014 3.03474 
10.0465 6.30593 9.30241 
10.349 3.24096 8.07984 
11.7059 2.78045 4.36876 
9.41753 5.14751 7.48036 
3.95753 12.3722 3.57551 
5.89895 6.37642 8.93293 
11.6103 1.77943 3.93371 
6.91993 8.01188 6.085 
5.96138 7.82035 9.30837 
1.79894 4.45619 4.08177 
9.25081 0.384635 7.65322 
0.964704 11.0597 3.51222 
12.1774 9.86034 9.03874 
12.4912 4.36015 4.58294 
6.44266 7.84429 1.16449 
8.21151 11.6987 0.108837 
10.9427 8.85044 6.74753 
4.51104 11.5944 2.03222 
3.59557 6.15912 4.21838 
7.12333 6.98261 5.78174 
11.2927 10.3375 9.59201 
5.36248 10.2476 11.3039 
6.86384 9.26519 2.36984 
11.6279 3.72384 5.96253 
10.6549 7.88199 6.30988 
0.656095 3.64222 4.89055 
4.85195 2.31836 4.74543 
10.9564 6.44625 9.84755 
0.883456 0.0949923 2.88167 
9.1104 5.05866 8.50707 
4.37454 4.8993 5.79719 
1.76577 0.762398 11.6651 
7.76023 2.23449 10.0408 
6.62476 1.77429 5.16462 
-0.00503966 6.91267 1.75376 
5.60177 8.46783 0.842214 
1.88235 9.00479 10.6339 
4.09207 11.0502 8.40073 
7.44339 5.72564 4.16561 
8.13434 4.55612 0.476796 
5.2847 5.38502 6.38489 
7.32465 0.932433 4.96833 
3.78579 4.31894 6.56817 
8.35671 6.17521 9.81943 
2.52766 10.6007 7.06543 
3.15626 2.67764 8.89171 
12.5986 3.39373 4.15958 
4.75611 12.0426 9.91067 
4.35761 0.136574 7.24057 
5.34363 12.3944 7.71046 
8.63229 10.2403 11.6415 
6.36822 7.26041 8.47288 
11.0475 0.879984 11.3736 
2.3066 12.454 11.743 
5.49274 1.82853 11.5273 
0.00426698 8.82827 2.2543 
0.887193 5.61124 9.9682 
9.1037 2.29154 6.46976 
5.19773 11.6799 11.8863 
3.71837 2.01313 7.3387 
4.86765 11.1107 9.16916 
10.7237 4.28333 2.06276 
3.97493 5.77357 3.29578 
5.06938 4.66231 8.8115 
1.36748 3.77589 6.91077 
1.26157 5.72676 2.77793 
4.14557 12.6386 8.27804 
5.54217 5.32785 12.6238 
8.51681 10.5648 9.53094 
6.69841 4.56589 2.55138 
2.64659 3.23963 12.7126 
6.72925 9.85747 1.43836 
10.0418 8.49501 7.98412 
2.20477 9.26107 12.5489 
4.22039 2.81347 9.01338 
3.66828 6.20372 8.74999 
6.4131 0.943193 8.89304 
3.94742 0.621804 4.14433 
6.32419 5.85176 11.1774 
9.59814 10.1513 0.372155 
7.58737 5.41605 12.574 
8.51654 2.50856 1.40324 
10.4357 10.4939 1.04702 
2.57045 9.55032 6.67164 
12.4698 5.29866 4.04112 
7.15524 0.422632 3.15551 
11.1185 8.02799 11.148 
9.23101 9.78832 6.79942 
0.697601 1.4071 1.46817 
1.46 2.79619 3.39329 
6.97715 0.973552 2.22341 
9.51306 5.35284 5.26689 
0.375825 4.35148 2.50558 
8.54835 12.7389 0.0808907 
2.54914 6.25897 4.32878 
2.86016 8.40392 6.84588 
9.35554 4.35354 9.70126 
4.63061 3.23573 0.675702 
10.3569 7.30705 9.36717 
2.56964 2.51938 3.48383 
5.24497 7.25206 8.73755 
8.35875 1.89578 3.48238 
1.28759 2.64253 2.37731 
8.6888 0.27532 6.42816 
1.25012 6.35731 5.93067 
3.96404 10.9174 0.15155 
2.3451 6.4267 3.20029 
1.38352 1.0184 4.22581 
6.60285 2.06282 1.61755 
12.4275 5.788 1.91459 
12.1748 3.61157 11.5334 
10.4812 11.9536 10.0602 
5.17172 4.1023 4.23932 
8.89716 3.82482 4.22135 
5.39493 7.00189 6.86469 
6.81167 2.0062 4.11241 
8.01468 1.22462 2.68539 
12.3793 1.6005 1.89971 
11.6213 5.03025 4.67749 
5.86987 2.98052 1.99104 
2.26583 1.97287 0.970562 
0.502454 0.727031 4.73239 
5.98074 4.18282 6.95676 
1.22513 8.21015 5.21632 
11.4854 -0.00372299 4.17375 
2.33501 5.53604 2.59524 