
#------------ NVE rescale -----------------------------------------
	velocity 	all create ${T_run} ${seed} rot yes dist gaussian
	velocity 	all create 0.08267367665 ${seed} rot yes dist gaussian
	velocity 	all create 0.08267367665 1111 rot yes dist gaussian
	fix 		1 all nve
	fix 		2 all temp/rescale 1 ${T_run} ${T_run} 0.01 1.0
	fix 		2 all temp/rescale 1 0.08267367665 ${T_run} 0.01 1.0
	fix 		2 all temp/rescale 1 0.08267367665 0.08267367665 0.01 1.0
	timestep	${dt}
	timestep	0.002
	thermo_style  	custom step temp press etotal vol
	thermo		1000
	run             100000	
Memory usage per processor = 1.68529 Mbytes
Step Temp Press TotEng Volume 
       0  0.082673677  -0.67741729   -6.7567258     2042.582 
    1000  0.087886516   0.05529242   -6.6174654     2042.582 
    2000  0.088998296  0.047364688   -6.6174664     2042.582 
    3000  0.089301908  0.031425782   -6.6174673     2042.582 
    4000  0.090496921  0.031055809    -6.617467     2042.582 
    5000  0.087693811  0.057670214    -6.617466     2042.582 
    6000  0.088016623  0.050165074   -6.6174658     2042.582 
    7000  0.088498124  0.051636378   -6.6174648     2042.582 
    8000  0.087412173  0.045452761   -6.6174638     2042.582 
    9000  0.087092736  0.060469553   -6.6174652     2042.582 
   10000  0.088501668  0.040288486   -6.6174653     2042.582 
   11000  0.087574832  0.048195323   -6.6174675     2042.582 
   12000  0.087192635  0.047318799   -6.6174672     2042.582 
   13000   0.08864376   0.04320193   -6.6174678     2042.582 
   14000  0.089768254  0.030284813   -6.6174687     2042.582 
   15000  0.086624324   0.06554603   -6.6174663     2042.582 
   16000  0.086617759  0.062777795   -6.6174664     2042.582 
   17000  0.087150133  0.045815971   -6.6174658     2042.582 
   18000  0.087586302  0.056727163   -6.6174648     2042.582 
   19000  0.089006762  0.041190198   -6.6174659     2042.582 
   20000  0.086684387  0.057209107   -6.6174638     2042.582 
   21000  0.087569001  0.045056958   -6.6174634     2042.582 
   22000  0.086972358  0.057573111   -6.6174601     2042.582 
   23000  0.089011807  0.045588644   -6.6174603     2042.582 
   24000  0.089224918  0.044420701   -6.6174612     2042.582 
   25000  0.090026817  0.026521092    -6.617463     2042.582 
   26000  0.089660559  0.042641024   -6.6174648     2042.582 
   27000  0.086691188  0.054282546   -6.6174667     2042.582 
   28000  0.088490959  0.042265274   -6.6174692     2042.582 
   29000  0.088099778  0.048109415   -6.6174669     2042.582 
   30000   0.08867782  0.045731765    -6.617465     2042.582 
   31000   0.08741608  0.043493785   -6.6174628     2042.582 
   32000  0.089635722   0.04061093   -6.6174634     2042.582 
   33000  0.087320623  0.057699476   -6.6174605     2042.582 
   34000  0.086411451  0.055719774   -6.6174595     2042.582 
   35000  0.087559359  0.051798945   -6.6174598     2042.582 
   36000  0.089651133  0.046087793   -6.6174599     2042.582 
   37000  0.089548114  0.037163248   -6.6174583     2042.582 
   38000  0.089122565  0.039648772   -6.6174601     2042.582 
   39000  0.087067525  0.048707494   -6.6174586     2042.582 
   40000  0.087903094  0.050135652   -6.6174596     2042.582 
   41000  0.089877642  0.031258186   -6.6174611     2042.582 
   42000  0.087098932  0.052512164   -6.6174612     2042.582 
   43000  0.086522805  0.054552909   -6.6174593     2042.582 
   44000  0.087081734   0.05378725   -6.6174589     2042.582 
   45000   0.08700172  0.049783559   -6.6174577     2042.582 
   46000  0.086904623  0.052145743   -6.6174568     2042.582 
   47000  0.090138179  0.028903362   -6.6174595     2042.582 
   48000  0.087656636  0.049433036     -6.61746     2042.582 
   49000  0.086737875  0.060495372   -6.6174548     2042.582 
   50000  0.087624959  0.054288855   -6.6174547     2042.582 
   51000  0.089279098  0.030092606   -6.6174539     2042.582 
   52000  0.090017876  0.027785921   -6.6174548     2042.582 
   53000  0.089961753  0.034019222   -6.6174553     2042.582 
   54000  0.089421411   0.03677958   -6.6174543     2042.582 
   55000  0.088346495  0.039384021   -6.6174524     2042.582 
   56000  0.087807246   0.04279436   -6.6174521     2042.582 
   57000  0.087737965  0.047492918   -6.6174542     2042.582 
   58000  0.090003924  0.033808078    -6.617455     2042.582 
   59000  0.088416567  0.043058139    -6.617455     2042.582 
   60000  0.090143295  0.034795106   -6.6174559     2042.582 
   61000   0.08861299   0.04652885    -6.617454     2042.582 
   62000  0.090225792  0.034058831   -6.6174541     2042.582 
   63000  0.087265969  0.057323834   -6.6174531     2042.582 
   64000  0.089361848    0.0393036   -6.6174536     2042.582 
   65000  0.088741874   0.04029001   -6.6174543     2042.582 
   66000  0.087420908  0.044377361   -6.6174531     2042.582 
   67000  0.090192969  0.036248569    -6.617453     2042.582 
   68000   0.08981106  0.035093882   -6.6174532     2042.582 
   69000  0.088001871  0.050037819   -6.6174523     2042.582 
   70000  0.088512084  0.039942474   -6.6174516     2042.582 
   71000   0.08898872  0.047852209     -6.61745     2042.582 
   72000   0.08647483  0.052757923   -6.6174504     2042.582 
   73000  0.088491007  0.041899613   -6.6174515     2042.582 
   74000  0.087761052  0.042703263   -6.6174515     2042.582 
   75000  0.088978379  0.050687919   -6.6174519     2042.582 
   76000  0.088839318  0.048468148   -6.6174516     2042.582 
   77000   0.08758801  0.048200659    -6.617448     2042.582 
   78000  0.088631527  0.046414762   -6.6174476     2042.582 
   79000  0.089973728  0.034079656   -6.6174472     2042.582 
   80000  0.088495426  0.044089161   -6.6174473     2042.582 
   81000  0.088450879  0.045103613    -6.617449     2042.582 
   82000  0.087981512  0.056013094   -6.6174475     2042.582 
   83000  0.088606473  0.043228306   -6.6174458     2042.582 
   84000  0.087723957  0.049533821   -6.6174451     2042.582 
   85000  0.088331147  0.041973584   -6.6174464     2042.582 
   86000  0.086330634  0.057555276   -6.6174448     2042.582 
   87000  0.089343644  0.048331483   -6.6174461     2042.582 
   88000  0.088415124   0.04812723   -6.6174458     2042.582 
   89000  0.088377574  0.051120911   -6.6174426     2042.582 
   90000  0.087360227  0.052586502   -6.6174417     2042.582 
   91000  0.088463644  0.041423666   -6.6174442     2042.582 
   92000  0.088969661  0.038406715   -6.6174445     2042.582 
   93000  0.087620809   0.04662871   -6.6174434     2042.582 
   94000  0.087219842  0.052991022   -6.6174424     2042.582 
   95000  0.087139262  0.047337425   -6.6174418     2042.582 
   96000  0.088800955  0.043254107   -6.6174419     2042.582 
   97000  0.090298498  0.037547298   -6.6174431     2042.582 
   98000  0.086861879  0.057988483   -6.6174435     2042.582 
   99000  0.087870159  0.048669676   -6.6174423     2042.582 
  100000  0.088667859  0.043900076   -6.6174431     2042.582 
Loop time of 238.473 on 1 procs for 100000 steps with 2048 atoms

Pair  time (%) = 221.268 (92.7857)
Neigh time (%) = 6.36538 (2.66923)
Comm  time (%) = 4.15951 (1.74423)
Outpt time (%) = 0.00488591 (0.00204884)
Other time (%) = 6.67446 (2.79884)

Nlocal:    2048 ave 2048 max 2048 min
Histogram: 1 0 0 0 0 0 0 0 0 0
Nghost:    4112 ave 4112 max 4112 min
Histogram: 1 0 0 0 0 0 0 0 0 0
Neighs:    91730 ave 91730 max 91730 min
Histogram: 1 0 0 0 0 0 0 0 0 0

Total # of neighbors = 91730
Ave neighs/atom = 44.79
Neighbor list builds = 1347
Dangerous builds = 0
#	run             1000
	unfix 		1
	unfix 		2
#------------ NVE -----------------------------------------------------------------------------	
	fix 		1 all nve
	timestep	${dt}
	timestep	0.002
	fix		myave all ave/atom 1 10000 100000 x y z
	dump		1 all custom 500000 x.dump f_myave[1] f_myave[2] f_myave[3]
	dump_modify 	1 sort id
	thermo_style  	custom step temp press etotal vol
	thermo		1000
	run             500000	
Memory usage per processor = 1.96104 Mbytes
Step Temp Press TotEng Volume 
  100000  0.088667859  0.043900076   -6.6174431     2042.582 
  101000  0.088236447  0.048388489   -6.6174414     2042.582 
  102000  0.091386442  0.017124553   -6.6174443     2042.582 
  103000  0.088077163  0.042958626   -6.6174405     2042.582 
  104000  0.086080764  0.055276074     -6.61744     2042.582 
  105000  0.087673151  0.050971698   -6.6174432     2042.582 
  106000  0.086501892  0.049491527   -6.6174423     2042.582 
  107000   0.08987055  0.033427267   -6.6174451     2042.582 
  108000  0.088921927  0.040565752   -6.6174418     2042.582 
  109000  0.090310432  0.035704943   -6.6174432     2042.582 
  110000  0.088359672  0.045788894   -6.6174446     2042.582 
  111000  0.089636613  0.035131296   -6.6174438     2042.582 
  112000  0.088925653  0.050518023    -6.617444     2042.582 
  113000  0.089411544  0.034127456   -6.6174441     2042.582 
  114000  0.087448194  0.052637282   -6.6174442     2042.582 
  115000  0.088507069  0.047495345   -6.6174418     2042.582 
  116000  0.089400071  0.043010565   -6.6174411     2042.582 
  117000  0.088451669  0.035922341   -6.6174424     2042.582 
  118000  0.088059755  0.043727578   -6.6174444     2042.582 
  119000  0.087785828  0.047621836   -6.6174455     2042.582 
  120000  0.087614456  0.061776645   -6.6174469     2042.582 
  121000  0.086970431   0.05758132   -6.6174445     2042.582 
  122000   0.08708383   0.05513212   -6.6174467     2042.582 
  123000   0.08867574  0.034212928   -6.6174476     2042.582 
  124000  0.089107431  0.042385969   -6.6174492     2042.582 
  125000  0.089189194  0.033231735   -6.6174509     2042.582 
  126000  0.087526697  0.059773815   -6.6174505     2042.582 
  127000  0.087863762   0.05035958   -6.6174505     2042.582 
  128000  0.089431416  0.037369399    -6.617451     2042.582 
  129000  0.088007443  0.035653149   -6.6174514     2042.582 
  130000   0.08919494  0.035878447   -6.6174528     2042.582 
  131000  0.089777959  0.021311922   -6.6174518     2042.582 
  132000  0.089262339  0.043204504   -6.6174508     2042.582 
  133000  0.089303046  0.032757857   -6.6174514     2042.582 
  134000  0.089039651  0.042972241   -6.6174501     2042.582 
  135000  0.088907796  0.048580505   -6.6174488     2042.582 
  136000  0.088761028   0.04196368   -6.6174495     2042.582 
  137000  0.089522681  0.038875216   -6.6174485     2042.582 
  138000  0.089908348  0.037734493   -6.6174462     2042.582 
  139000  0.087006211  0.050437868    -6.617444     2042.582 
  140000  0.087927346  0.041453367   -6.6174457     2042.582 
  141000  0.088790943  0.048979733   -6.6174469     2042.582 
  142000   0.08760982  0.052175523   -6.6174448     2042.582 
  143000  0.089130686  0.044241309   -6.6174454     2042.582 
  144000  0.092493417  0.017694642   -6.6174475     2042.582 
  145000  0.086646388  0.056735169   -6.6174465     2042.582 
  146000  0.089539454  0.043537427   -6.6174474     2042.582 
  147000  0.089352304  0.039721858   -6.6174441     2042.582 
  148000  0.086356864  0.070790251   -6.6174421     2042.582 
  149000  0.087240992  0.067387773   -6.6174414     2042.582 
  150000  0.087777124  0.053343492   -6.6174421     2042.582 
  151000  0.087470562  0.052646595   -6.6174417     2042.582 
  152000  0.087524962  0.047163044   -6.6174418     2042.582 
  153000  0.088535688   0.03632535   -6.6174449     2042.582 
  154000  0.089107838  0.043794829   -6.6174447     2042.582 
  155000  0.088687065  0.032718461   -6.6174468     2042.582 
  156000  0.086114467  0.068944605   -6.6174444     2042.582 
  157000  0.089847747  0.035716471    -6.617445     2042.582 
  158000  0.088268025  0.048939276   -6.6174425     2042.582 
  159000  0.087778467  0.048237948   -6.6174434     2042.582 
  160000  0.089757332  0.037088429   -6.6174413     2042.582 
  161000  0.088712754   0.04410145   -6.6174399     2042.582 
  162000  0.089814988  0.042315789    -6.617442     2042.582 
  163000  0.089704671  0.039140973   -6.6174446     2042.582 
  164000  0.090282639  0.027282789   -6.6174429     2042.582 
  165000  0.088366889  0.054444061   -6.6174415     2042.582 
  166000  0.087871695  0.052566888   -6.6174423     2042.582 
  167000  0.088937604  0.040135758    -6.617443     2042.582 
  168000  0.088108776  0.042301836   -6.6174435     2042.582 
  169000  0.088517204  0.055953779   -6.6174433     2042.582 
  170000  0.090129134  0.028285244    -6.617445     2042.582 
  171000  0.088329203  0.050613977   -6.6174451     2042.582 
  172000  0.086920691  0.052591891   -6.6174444     2042.582 
  173000  0.088571391  0.050096258   -6.6174456     2042.582 
  174000  0.088379895  0.044800942   -6.6174437     2042.582 
  175000  0.089688552  0.041451695   -6.6174446     2042.582 
  176000    0.0870804  0.051194082   -6.6174444     2042.582 
  177000  0.087976359  0.051243015   -6.6174461     2042.582 
  178000  0.088055276  0.046666814    -6.617443     2042.582 
  179000  0.090393214  0.032223504   -6.6174443     2042.582 
  180000  0.087511395  0.041767637   -6.6174425     2042.582 
  181000  0.089004005  0.035549725   -6.6174446     2042.582 
  182000   0.08794423  0.046838926   -6.6174423     2042.582 
  183000  0.089736238  0.038357319   -6.6174426     2042.582 
  184000  0.088842129  0.049537961   -6.6174441     2042.582 
  185000  0.088854495  0.036621948   -6.6174415     2042.582 
  186000  0.088146018  0.046441613   -6.6174416     2042.582 
  187000  0.087235295  0.050123883    -6.617442     2042.582 
  188000  0.089135985  0.043783685   -6.6174434     2042.582 
  189000  0.088659497  0.043082379   -6.6174442     2042.582 
  190000   0.08825541  0.048839861    -6.617444     2042.582 
  191000   0.09065201  0.033007176    -6.617445     2042.582 
  192000  0.088476346  0.043848992   -6.6174433     2042.582 
  193000  0.087803906  0.043406848   -6.6174442     2042.582 
  194000   0.08979768  0.041855193   -6.6174449     2042.582 
  195000  0.088750847  0.038894789   -6.6174443     2042.582 
  196000  0.089246811  0.042982394   -6.6174448     2042.582 
  197000  0.088077372  0.056560344   -6.6174449     2042.582 
  198000  0.089673538  0.030467393    -6.617445     2042.582 
  199000  0.087744223  0.045761802   -6.6174439     2042.582 
  200000  0.087871992  0.050418652   -6.6174444     2042.582 
  201000  0.088371069  0.043923232   -6.6174436     2042.582 
  202000  0.088275246  0.052121271   -6.6174441     2042.582 
  203000  0.086034093  0.057369007   -6.6174416     2042.582 
  204000  0.087453674  0.050709962    -6.617441     2042.582 
  205000  0.089466933  0.046913757    -6.617442     2042.582 
  206000  0.090078889  0.032820802   -6.6174438     2042.582 
  207000  0.089349576   0.03533984    -6.617441     2042.582 
  208000  0.089003465  0.041508828    -6.617441     2042.582 
  209000  0.087150038  0.055489083   -6.6174407     2042.582 
  210000   0.08994011  0.040251429   -6.6174412     2042.582 
  211000  0.091056642  0.024919125   -6.6174429     2042.582 
  212000  0.087078683  0.049876232   -6.6174416     2042.582 
  213000  0.088764241  0.049085585     -6.61744     2042.582 
  214000  0.089334979  0.037419469   -6.6174399     2042.582 
  215000  0.088178842  0.041956086   -6.6174405     2042.582 
  216000  0.088660013  0.047929615   -6.6174408     2042.582 
  217000  0.089104307  0.038226123   -6.6174402     2042.582 
  218000  0.088206065  0.046471034   -6.6174404     2042.582 
  219000  0.089348804  0.037158256   -6.6174436     2042.582 
  220000  0.088713903  0.048584698   -6.6174404     2042.582 
  221000  0.087984322  0.046092179   -6.6174415     2042.582 
  222000  0.093033538 0.0077312147   -6.6174437     2042.582 
  223000  0.087953246  0.046018286   -6.6174397     2042.582 
  224000  0.087752942  0.046203536   -6.6174395     2042.582 
  225000  0.089178945  0.037905238    -6.617442     2042.582 
  226000  0.089366505  0.036068232   -6.6174406     2042.582 
  227000  0.088368805  0.052035839   -6.6174399     2042.582 
  228000  0.089960257  0.037223431   -6.6174403     2042.582 
  229000  0.089247981   0.04398102   -6.6174371     2042.582 
  230000  0.090352878  0.028814295   -6.6174368     2042.582 
  231000  0.085646456  0.062994607   -6.6174353     2042.582 
  232000  0.086988462  0.055240869    -6.617437     2042.582 
  233000  0.088741258  0.048927931   -6.6174395     2042.582 
  234000     0.089719  0.038150049   -6.6174392     2042.582 
  235000  0.089512046  0.034233113   -6.6174401     2042.582 
  236000   0.08856428  0.046573658   -6.6174405     2042.582 
  237000  0.087279761  0.060432335    -6.617439     2042.582 
  238000  0.086705211  0.062484803   -6.6174376     2042.582 
  239000  0.089564107  0.030121239   -6.6174413     2042.582 
  240000  0.089362216  0.039303767     -6.61744     2042.582 
  241000  0.087895884  0.046734818    -6.617437     2042.582 
  242000  0.088575435  0.049246959   -6.6174368     2042.582 
  243000   0.08894519  0.040702099   -6.6174372     2042.582 
  244000  0.090253372   0.03786233   -6.6174399     2042.582 
  245000  0.088128884    0.0427962   -6.6174378     2042.582 
  246000  0.089081879   0.04336004   -6.6174395     2042.582 
  247000  0.088751853  0.046727588   -6.6174368     2042.582 
  248000  0.089767377  0.046482539   -6.6174384     2042.582 
  249000  0.088377131  0.045716504   -6.6174385     2042.582 
  250000  0.090339374  0.036025432   -6.6174405     2042.582 
  251000  0.088511933  0.042926993   -6.6174398     2042.582 
  252000   0.08776949  0.056927564   -6.6174394     2042.582 
  253000  0.087376463  0.049167558   -6.6174405     2042.582 
  254000  0.088217284  0.047755775     -6.61744     2042.582 
  255000   0.08806897  0.050648424   -6.6174404     2042.582 
  256000  0.087379907   0.05869475   -6.6174374     2042.582 
  257000  0.086971684  0.060225748   -6.6174402     2042.582 
  258000  0.088586018  0.040676749   -6.6174413     2042.582 
  259000  0.089386916  0.047892064   -6.6174402     2042.582 
  260000  0.089186144  0.042549192   -6.6174416     2042.582 
  261000  0.087892812  0.057422557   -6.6174383     2042.582 
  262000  0.088239354   0.04744099    -6.617437     2042.582 
  263000  0.090288212  0.033877711   -6.6174402     2042.582 
  264000  0.088248253  0.047996031    -6.617436     2042.582 
  265000  0.089267623  0.037283685   -6.6174342     2042.582 
  266000   0.08923593  0.046371526    -6.617436     2042.582 
  267000   0.08822588  0.048087157   -6.6174365     2042.582 
  268000   0.08847488   0.04845249   -6.6174349     2042.582 
  269000  0.087441619  0.058708352   -6.6174342     2042.582 
  270000  0.087817083  0.057447698   -6.6174361     2042.582 
  271000  0.089188072  0.045866364   -6.6174369     2042.582 
  272000  0.088535877  0.056686841    -6.617439     2042.582 
  273000  0.088569267   0.04852761   -6.6174403     2042.582 
  274000  0.088544102  0.043843839   -6.6174408     2042.582 
  275000  0.089656857  0.042351877    -6.617438     2042.582 
  276000  0.089086522  0.041143293   -6.6174395     2042.582 
  277000  0.088834442  0.044845176    -6.617439     2042.582 
  278000  0.089145153  0.044728612   -6.6174367     2042.582 
  279000  0.087087517  0.065244928   -6.6174359     2042.582 
  280000  0.088640054  0.055771025   -6.6174378     2042.582 
  281000  0.090838206  0.027894562   -6.6174382     2042.582 
  282000  0.088570305    0.0423777   -6.6174372     2042.582 
  283000  0.090783784  0.029399806   -6.6174399     2042.582 
  284000  0.092349343  0.022817268   -6.6174399     2042.582 
  285000  0.089718547  0.042048649   -6.6174401     2042.582 
  286000  0.090146993  0.029634462   -6.6174397     2042.582 
  287000  0.091002556  0.031461296   -6.6174403     2042.582 
  288000  0.089373499  0.050306967   -6.6174394     2042.582 
  289000  0.088202257  0.044934283   -6.6174383     2042.582 
  290000   0.08875512  0.042578366   -6.6174413     2042.582 
  291000  0.088498096  0.045521526   -6.6174401     2042.582 
  292000  0.086581266  0.059729043   -6.6174394     2042.582 
  293000  0.087595125  0.054658627   -6.6174392     2042.582 
  294000  0.091203531   0.02604614   -6.6174393     2042.582 
  295000  0.089942454  0.040441188    -6.617438     2042.582 
  296000  0.087349667  0.048154091   -6.6174363     2042.582 
  297000  0.087735918  0.048997502   -6.6174368     2042.582 
  298000  0.088492443  0.047816391   -6.6174372     2042.582 
  299000  0.088812746  0.047011795   -6.6174376     2042.582 
  300000  0.089022842  0.033380207   -6.6174376     2042.582 
  301000  0.090690448  0.016157805   -6.6174377     2042.582 
  302000  0.090556615  0.036718543   -6.6174385     2042.582 
  303000  0.089183997  0.042106555   -6.6174377     2042.582 
  304000  0.089654532  0.030151546   -6.6174384     2042.582 
  305000  0.091108117  0.015460479   -6.6174395     2042.582 
  306000   0.09049368  0.028950148   -6.6174387     2042.582 
  307000  0.088160214  0.050310619   -6.6174368     2042.582 
  308000  0.088927983  0.026313787    -6.617436     2042.582 
  309000   0.08763489   0.04898057   -6.6174353     2042.582 
  310000  0.087558876  0.056657418   -6.6174341     2042.582 
  311000  0.087707597  0.045602884   -6.6174362     2042.582 
  312000  0.088935934  0.046087793   -6.6174377     2042.582 
  313000  0.087737795  0.047974034    -6.617436     2042.582 
  314000  0.090925829  0.026093624    -6.617438     2042.582 
  315000  0.091302554  0.032489041   -6.6174397     2042.582 
  316000  0.090344013  0.030254944   -6.6174384     2042.582 
  317000  0.091930647  0.014107968   -6.6174386     2042.582 
  318000  0.090210163  0.038424625   -6.6174359     2042.582 
  319000  0.089683626  0.035651925   -6.6174349     2042.582 
  320000    0.0888879  0.037474518   -6.6174335     2042.582 
  321000  0.088936227  0.037037196   -6.6174319     2042.582 
  322000  0.090745634  0.025796891   -6.6174345     2042.582 
  323000  0.087992326   0.04842741   -6.6174317     2042.582 
  324000  0.089028236  0.042370163   -6.6174335     2042.582 
  325000  0.089302156  0.033190989   -6.6174339     2042.582 
  326000  0.089535768  0.038742785   -6.6174344     2042.582 
  327000  0.089118779  0.037287757   -6.6174321     2042.582 
  328000  0.091046893  0.021509952   -6.6174309     2042.582 
  329000  0.090152173  0.028794386   -6.6174304     2042.582 
  330000  0.089703197  0.034503165   -6.6174291     2042.582 
  331000  0.090389186  0.034686935    -6.617426     2042.582 
  332000  0.090071489  0.029634899   -6.6174252     2042.582 
  333000   0.09051764  0.026963705   -6.6174271     2042.582 
  334000  0.091328743  0.023217087   -6.6174271     2042.582 
  335000  0.088912405  0.038974048   -6.6174279     2042.582 
  336000  0.090288637  0.035272483     -6.61743     2042.582 
  337000  0.089757669   0.04206556   -6.6174268     2042.582 
  338000  0.090241039  0.035877594   -6.6174288     2042.582 
  339000   0.09038089  0.031774952    -6.617427     2042.582 
  340000  0.091244776  0.028736254   -6.6174279     2042.582 
  341000  0.090386637  0.032772016   -6.6174267     2042.582 
  342000  0.089780703  0.043127649   -6.6174253     2042.582 
  343000   0.09172267  0.018668077   -6.6174259     2042.582 
  344000  0.090548238  0.025565845    -6.617425     2042.582 
  345000  0.088917568  0.038414571   -6.6174236     2042.582 
  346000  0.091327114  0.027873551   -6.6174258     2042.582 
  347000  0.088869546  0.043447709   -6.6174231     2042.582 
  348000  0.090259476  0.038998207   -6.6174243     2042.582 
  349000  0.089897377  0.042746571   -6.6174253     2042.582 
  350000  0.089201751  0.044078133   -6.6174257     2042.582 
  351000   0.09049741  0.035222563   -6.6174274     2042.582 
  352000  0.091722118   0.02474499   -6.6174292     2042.582 
  353000   0.09044462  0.039992063   -6.6174303     2042.582 
  354000  0.091840096  0.032805053   -6.6174311     2042.582 
  355000  0.091648019  0.025010373    -6.617431     2042.582 
  356000  0.092341989  0.024339809   -6.6174318     2042.582 
  357000  0.090113134  0.041660741   -6.6174329     2042.582 
  358000  0.089393112  0.047287256   -6.6174312     2042.582 
  359000   0.08995157  0.036717637   -6.6174328     2042.582 
  360000  0.090811718  0.030105055   -6.6174309     2042.582 
  361000  0.089362264  0.053582683   -6.6174307     2042.582 
  362000  0.090933773  0.031348614   -6.6174304     2042.582 
  363000  0.091834042  0.023784715   -6.6174296     2042.582 
  364000   0.09039794  0.034675851   -6.6174278     2042.582 
  365000  0.092167669  0.028464906   -6.6174277     2042.582 
  366000  0.090371597   0.03860452   -6.6174276     2042.582 
  367000  0.088679619  0.042927684   -6.6174278     2042.582 
  368000   0.09039229  0.040487872   -6.6174294     2042.582 
  369000   0.08838678  0.059119648    -6.617426     2042.582 
  370000  0.089422144  0.041308081   -6.6174271     2042.582 
  371000   0.09029559  0.041360757   -6.6174255     2042.582 
  372000  0.090003842   0.04300784   -6.6174256     2042.582 
  373000   0.09174366  0.025236321   -6.6174276     2042.582 
  374000  0.090620565  0.036061245   -6.6174263     2042.582 
  375000  0.091291078  0.029356689   -6.6174245     2042.582 
  376000  0.090738668  0.037494402   -6.6174238     2042.582 
  377000  0.089639876  0.037538218   -6.6174204     2042.582 
  378000  0.089622756  0.038504611   -6.6174181     2042.582 
  379000  0.091933665  0.029660107   -6.6174221     2042.582 
  380000   0.08927377  0.045726449   -6.6174191     2042.582 
  381000  0.090830089  0.032345679   -6.6174196     2042.582 
  382000  0.089114865  0.045686937    -6.617418     2042.582 
  383000  0.091967184  0.034655732   -6.6174183     2042.582 
  384000  0.087747532  0.056135167   -6.6174166     2042.582 
  385000  0.091197895   0.02188674   -6.6174165     2042.582 
  386000  0.091196252  0.041413311   -6.6174143     2042.582 
  387000  0.091472562  0.027319648   -6.6174156     2042.582 
  388000  0.089740338   0.04617529   -6.6174128     2042.582 
  389000  0.090486985   0.03842691   -6.6174123     2042.582 
  390000  0.091528962  0.024719268   -6.6174098     2042.582 
  391000  0.088692519  0.044500054   -6.6174114     2042.582 
  392000  0.087143957  0.047741034   -6.6174104     2042.582 
  393000  0.089232842  0.040319433   -6.6174118     2042.582 
  394000  0.089928455  0.034506243   -6.6174092     2042.582 
  395000   0.09053428  0.033212277   -6.6174065     2042.582 
  396000   0.09201024  0.025061607   -6.6174081     2042.582 
  397000  0.091890585  0.026545481   -6.6174096     2042.582 
  398000  0.089762986  0.036307587   -6.6174097     2042.582 
  399000  0.094810475 -0.0023205936   -6.6174156     2042.582 
  400000   0.09072436  0.022287577   -6.6174164     2042.582 
  401000   0.09076624  0.035238081   -6.6174179     2042.582 
  402000  0.089174636  0.045963928   -6.6174131     2042.582 
  403000  0.090910018  0.036692687   -6.6174154     2042.582 
  404000  0.089419596  0.044484903   -6.6174133     2042.582 
  405000  0.091543004  0.035125789   -6.6174134     2042.582 
  406000  0.091156959  0.031638834    -6.617413     2042.582 
  407000  0.088787907  0.044843439   -6.6174126     2042.582 
  408000  0.090448748  0.036030513   -6.6174131     2042.582 
  409000  0.093743616  0.011772155   -6.6174144     2042.582 
  410000   0.08997325  0.040279098   -6.6174134     2042.582 
  411000  0.091326237  0.030777766    -6.617415     2042.582 
  412000  0.089389893  0.042410363   -6.6174161     2042.582 
  413000  0.089073678  0.045392007   -6.6174159     2042.582 
  414000  0.091045184  0.037796208   -6.6174176     2042.582 
  415000    0.0914958  0.032299441   -6.6174162     2042.582 
  416000  0.090497402  0.034358032   -6.6174151     2042.582 
  417000  0.092219244  0.017706279   -6.6174157     2042.582 
  418000   0.09046444  0.026585696   -6.6174198     2042.582 
  419000  0.091744874  0.028965365   -6.6174209     2042.582 
  420000  0.091554424  0.026821522   -6.6174208     2042.582 
  421000  0.090913602  0.033948543    -6.617419     2042.582 
  422000  0.091105614  0.032049418   -6.6174168     2042.582 
  423000   0.09215034  0.020554639   -6.6174164     2042.582 
  424000  0.089397039  0.039301482   -6.6174155     2042.582 
  425000  0.090465048  0.035274253   -6.6174165     2042.582 
  426000  0.090696333  0.033123382    -6.617415     2042.582 
  427000  0.090872327  0.031311421   -6.6174176     2042.582 
  428000  0.089871382  0.038732405   -6.6174181     2042.582 
  429000  0.089280816  0.045930572   -6.6174165     2042.582 
  430000  0.090764669  0.035619789    -6.617417     2042.582 
  431000  0.090616774  0.036864663   -6.6174168     2042.582 
  432000  0.089884696  0.040015747   -6.6174151     2042.582 
  433000  0.091651478  0.025044082   -6.6174168     2042.582 
  434000  0.092340488  0.021291449   -6.6174176     2042.582 
  435000  0.090746312  0.036088848   -6.6174163     2042.582 
  436000  0.091642557  0.037149521   -6.6174153     2042.582 
  437000  0.090181843   0.03836864   -6.6174137     2042.582 
  438000  0.090122095  0.043452744   -6.6174137     2042.582 
  439000  0.090784819  0.026120123   -6.6174129     2042.582 
  440000  0.090461664  0.042921626    -6.617409     2042.582 
  441000  0.088217836  0.052925442   -6.6174093     2042.582 
  442000  0.090339505  0.044996204   -6.6174105     2042.582 
  443000  0.088843038  0.052673737     -6.61741     2042.582 
  444000  0.090440565  0.035382968    -6.617411     2042.582 
  445000  0.090419391   0.03183991    -6.617411     2042.582 
  446000  0.090269177  0.037221823     -6.61741     2042.582 
  447000  0.091541111  0.020037529   -6.6174099     2042.582 
  448000  0.090536944  0.034705716   -6.6174116     2042.582 
  449000  0.090621143  0.037099952   -6.6174113     2042.582 
  450000  0.091628413  0.034825445   -6.6174105     2042.582 
  451000  0.090381945  0.040002489   -6.6174088     2042.582 
  452000  0.091953943  0.029095284    -6.617409     2042.582 
  453000  0.090052495  0.032913498   -6.6174105     2042.582 
  454000  0.090329802  0.039944544   -6.6174128     2042.582 
  455000  0.087395913  0.050530078   -6.6174108     2042.582 
  456000  0.088723627  0.049056821   -6.6174128     2042.582 
  457000    0.0892937  0.047510548   -6.6174139     2042.582 
  458000  0.090513966  0.037229795   -6.6174146     2042.582 
  459000  0.090798243  0.033960261   -6.6174128     2042.582 
  460000  0.091340722  0.018495881   -6.6174147     2042.582 
  461000  0.090699686   0.03489808   -6.6174104     2042.582 
  462000  0.091149678  0.029302867   -6.6174109     2042.582 
  463000  0.090407814   0.03378405   -6.6174097     2042.582 
  464000  0.092052739  0.032819634   -6.6174104     2042.582 
  465000  0.091157414   0.03017574   -6.6174138     2042.582 
  466000  0.089597182  0.041185977   -6.6174083     2042.582 
  467000  0.090797965  0.047588353   -6.6174115     2042.582 
  468000  0.091246478  0.027946485   -6.6174119     2042.582 
  469000  0.090552576  0.035042505   -6.6174109     2042.582 
  470000  0.091341017  0.025452026   -6.6174129     2042.582 
  471000    0.0903077  0.040849155   -6.6174121     2042.582 
  472000  0.092758839   0.01031381   -6.6174141     2042.582 
  473000  0.091066589  0.033196282   -6.6174144     2042.582 
  474000   0.09003448  0.043155517   -6.6174124     2042.582 
  475000  0.091582135  0.028234819   -6.6174133     2042.582 
  476000  0.090286699   0.03107452   -6.6174134     2042.582 
  477000  0.090742881  0.033692773   -6.6174146     2042.582 
  478000  0.091843406  0.025450291   -6.6174163     2042.582 
  479000  0.089534717  0.037342364   -6.6174153     2042.582 
  480000  0.089712549  0.044137339    -6.617416     2042.582 
  481000  0.089424637  0.047567616   -6.6174155     2042.582 
  482000  0.090598797  0.032894801   -6.6174171     2042.582 
  483000  0.089870529  0.038562864   -6.6174174     2042.582 
  484000  0.090995905   0.03274576   -6.6174188     2042.582 
  485000  0.089464986  0.041908436   -6.6174184     2042.582 
  486000  0.092104282  0.021220414   -6.6174204     2042.582 
  487000  0.091579471   0.02857567     -6.61742     2042.582 
  488000  0.089732419  0.048686986   -6.6174179     2042.582 
  489000  0.090677727  0.036881291   -6.6174193     2042.582 
  490000  0.090473552  0.032876734   -6.6174184     2042.582 
  491000  0.089365389  0.043807944    -6.617419     2042.582 
  492000  0.092240609  0.027452201   -6.6174188     2042.582 
  493000  0.090861529  0.030220867   -6.6174191     2042.582 
  494000   0.08967394  0.041365715   -6.6174173     2042.582 
  495000  0.089816058  0.042971495   -6.6174186     2042.582 
  496000  0.090257853   0.03572933   -6.6174173     2042.582 
  497000  0.090013623  0.045979564   -6.6174164     2042.582 
  498000  0.090608541   0.03973784   -6.6174183     2042.582 
  499000  0.090274861  0.041061548   -6.6174172     2042.582 
  500000  0.090739427  0.043138383   -6.6174191     2042.582 
  501000  0.091389443  0.022693234   -6.6174204     2042.582 
  502000   0.08823519  0.051651983   -6.6174177     2042.582 
  503000  0.090160479  0.037003815   -6.6174175     2042.582 
  504000  0.087115036  0.064174913   -6.6174157     2042.582 
  505000  0.088654111  0.044674234   -6.6174174     2042.582 
  506000  0.092182114  0.016429939   -6.6174169     2042.582 
  507000  0.089122434   0.04222895   -6.6174156     2042.582 
  508000  0.090306129  0.035075935   -6.6174178     2042.582 
  509000  0.091161042  0.021596583    -6.617416     2042.582 
  510000  0.089728814  0.041540973   -6.6174143     2042.582 
  511000  0.091944962  0.022697417   -6.6174155     2042.582 
  512000  0.089902911  0.039087237   -6.6174155     2042.582 
  513000  0.091702248  0.018823242   -6.6174164     2042.582 
  514000  0.089920555  0.041325551    -6.617416     2042.582 
  515000  0.090697426  0.038519344   -6.6174143     2042.582 
  516000   0.09169816  0.037452813   -6.6174158     2042.582 
  517000  0.089673523  0.046526681   -6.6174141     2042.582 
  518000  0.091610886  0.033670321   -6.6174172     2042.582 
  519000   0.08912317  0.043320674   -6.6174175     2042.582 
  520000  0.088436538  0.045873128   -6.6174171     2042.582 
  521000  0.089544527  0.040523858   -6.6174181     2042.582 
  522000   0.09071638  0.035400412   -6.6174168     2042.582 
  523000   0.09093881  0.025380423   -6.6174176     2042.582 
  524000  0.090248996  0.036451593   -6.6174168     2042.582 
  525000  0.091527181   0.03569339   -6.6174193     2042.582 
  526000  0.089535983  0.046168339   -6.6174186     2042.582 
  527000  0.090834728  0.038096347    -6.617417     2042.582 
  528000  0.091362071  0.018820702   -6.6174165     2042.582 
  529000  0.090508259  0.036691685   -6.6174174     2042.582 
  530000  0.091892973  0.032617059    -6.617419     2042.582 
  531000  0.090129652  0.041969851   -6.6174184     2042.582 
  532000  0.091916936  0.032597258   -6.6174197     2042.582 
  533000  0.091781961  0.023641699   -6.6174203     2042.582 
  534000  0.091077526  0.024519977   -6.6174171     2042.582 
  535000  0.090722462  0.035368652    -6.617416     2042.582 
  536000  0.090334895  0.034001946   -6.6174153     2042.582 
  537000  0.092149302  0.012870284   -6.6174137     2042.582 
  538000  0.090149817  0.039941411   -6.6174108     2042.582 
  539000  0.088956779  0.050888445   -6.6174098     2042.582 
  540000  0.091337907  0.040413938   -6.6174096     2042.582 
  541000  0.090166471  0.039702776   -6.6174071     2042.582 
  542000  0.090035497   0.04316282   -6.6174069     2042.582 
  543000  0.090334933   0.03373029    -6.617406     2042.582 
  544000   0.09064154  0.031675261   -6.6174067     2042.582 
  545000  0.089770148  0.043140209   -6.6174067     2042.582 
  546000  0.090974574  0.027744815   -6.6174056     2042.582 
  547000  0.090662881  0.038338118   -6.6174055     2042.582 
  548000  0.091242403    0.0366028    -6.617407     2042.582 
  549000  0.091648768  0.026945073   -6.6174069     2042.582 
  550000  0.089634944  0.037369098   -6.6174063     2042.582 
  551000  0.090461193  0.046998854   -6.6174063     2042.582 
  552000  0.090053774  0.042850665   -6.6174059     2042.582 
  553000  0.090484796  0.031465395   -6.6174081     2042.582 
  554000  0.088827025  0.052768464   -6.6174097     2042.582 
  555000  0.090563582  0.046109622   -6.6174122     2042.582 
  556000  0.091338255    0.0339767    -6.617415     2042.582 
  557000  0.089182821  0.043415324   -6.6174147     2042.582 
  558000  0.091003074  0.033522067   -6.6174161     2042.582 
  559000  0.090022318  0.039623517   -6.6174165     2042.582 
  560000  0.092244651   0.03236997    -6.617419     2042.582 
  561000  0.091074123  0.036520376   -6.6174172     2042.582 
  562000  0.092322691  0.024557694    -6.617416     2042.582 
  563000  0.089343821    0.0494332   -6.6174168     2042.582 
  564000   0.09204602  0.025604247   -6.6174191     2042.582 
  565000  0.089226855  0.040793796    -6.617419     2042.582 
  566000  0.091163404  0.036470839   -6.6174204     2042.582 
  567000  0.092157173   0.02238768   -6.6174205     2042.582 
  568000  0.090534369    0.0391286   -6.6174183     2042.582 
  569000  0.090692336  0.041058902   -6.6174171     2042.582 
  570000  0.091535615  0.028831526   -6.6174154     2042.582 
  571000  0.091523419  0.036280794   -6.6174142     2042.582 
  572000  0.092459901  0.022516409   -6.6174149     2042.582 
  573000  0.091781133  0.033599159   -6.6174136     2042.582 
  574000  0.091890956  0.024861149   -6.6174128     2042.582 
  575000  0.089950226  0.049198457   -6.6174107     2042.582 
  576000  0.090583187  0.038628796   -6.6174128     2042.582 
  577000  0.091737042  0.021958947   -6.6174139     2042.582 
  578000  0.091302012  0.037152502    -6.617412     2042.582 
  579000  0.091398347   0.02731989    -6.617415     2042.582 
  580000     0.091309  0.031499572    -6.617416     2042.582 
  581000   0.09053066  0.039676872   -6.6174159     2042.582 
  582000  0.092310114  0.026103894   -6.6174183     2042.582 
  583000  0.090308768  0.042482512   -6.6174186     2042.582 
  584000  0.091179263  0.030043708   -6.6174171     2042.582 
  585000  0.090362727  0.036780742   -6.6174165     2042.582 
  586000  0.086730734  0.063632069   -6.6174144     2042.582 
  587000  0.091335796  0.036276185   -6.6174177     2042.582 
  588000  0.090225498  0.034981881   -6.6174182     2042.582 
  589000  0.087035002  0.068247238   -6.6174138     2042.582 
  590000  0.092254511  0.026023036    -6.617416     2042.582 
  591000  0.091297054  0.028840832   -6.6174159     2042.582 
  592000  0.092155543  0.018412044    -6.617417     2042.582 
  593000  0.091801816  0.039682185   -6.6174165     2042.582 
  594000  0.089811894  0.042805018   -6.6174121     2042.582 
  595000  0.091039461  0.024687715   -6.6174128     2042.582 
  596000  0.091763601  0.023957907   -6.6174152     2042.582 
  597000  0.090698215  0.039966156   -6.6174127     2042.582 
  598000  0.091267068  0.027756935    -6.617412     2042.582 
  599000  0.091984982  0.019885106   -6.6174104     2042.582 
  600000  0.089820161  0.049568811   -6.6174077     2042.582 
Loop time of 1003.4 on 1 procs for 500000 steps with 2048 atoms

Pair  time (%) = 932.796 (92.9632)
Neigh time (%) = 27.6216 (2.75279)
Comm  time (%) = 17.3792 (1.73202)
Outpt time (%) = 0.0237052 (0.00236248)
Other time (%) = 25.5835 (2.54967)

Nlocal:    2048 ave 2048 max 2048 min
Histogram: 1 0 0 0 0 0 0 0 0 0
Nghost:    4114 ave 4114 max 4114 min
Histogram: 1 0 0 0 0 0 0 0 0 0
Neighs:    91505 ave 91505 max 91505 min
Histogram: 1 0 0 0 0 0 0 0 0 0

Total # of neighbors = 91505
Ave neighs/atom = 44.6802
Neighbor list builds = 6871
Dangerous builds = 0
#	run             10000
	unfix 		1


