ITEM: TIMESTEP
0
ITEM: NUMBER OF ATOMS
2048
ITEM: BOX BOUNDS
0 12.688
0 12.688
0 12.688
ITEM: ATOMS x y z 
6.9638 9.6802 8.4706 
5.9078 8.0759 6.1821 
2.9521 3.7248 10.042 
7.415 10.907 4.8276 
8.7595 1.7673 7.2577 
12.052 1.006 4.511 
11.679 2.6606 10.598 
5.7279 12.549 11.831 
10.273 3.8952 5.9189 
6.3241 9.1726 7.7666 
0.48575 7.5906 9.1953 
0.99637 3.967 8.9564 
5.6628 8.6233 7.088 
11.985 4.5375 10.964 
7.3322 4.3108 1.3695 
10.912 4.6886 1.18 
2.3376 5.4792 0.61062 
8.6924 10.502 10.562 
6.4237 0.96694 9.9337 
10.111 6.2622 7.2351 
5.5514 7.2675 12.536 
10.153 11.93 4.6148 
7.6595 11.249 3.6943 
2.6148 8.8242 7.7375 
5.451 6.7525 4.8544 
2.8509 8.9536 11.252 
3.0855 5.6283 9.5901 
3.4271 6.974 0.80138 
7.0301 4.613 9.6366 
11.025 10.692 8.7459 
6.5078 10.479 11.123 
9.2601 9.5492 11.183 
5.1502 2.8582 5.417 
7.5096 3.6353 0.42256 
8.3101 11.379 6.9192 
9.1646 9.8546 9.1102 
2.086 8.7492 8.7821 
7.4575 0.98422 8.4904 
0.59284 1.2245 0.64212 
4.8053 5.7823 3.2948 
0.67215 1.7474 4.1948 
7.2997 7.3708 0.76834 
5.3258 11.56 8.3263 
2.3037 9.924 10.915 
5.3657 10.265 2.9964 
3.7166 6.3787 6.7818 
5.908 3.7938 5.1817 
4.7119 12.576 5.7224 
6.974 4.6546 0.40629 
12.271 2.6137 3.7369 
5.1718 7.4836 7.7905 
10.485 5.4623 4.7453 
3.5936 6.169 1.5385 
10.456 10.975 6.9875 
8.8194 3.6346 9.3313 
4.5152 6.5427 10.279 
0.45426 0.36058 10.884 
11.812 12.477 10.409 
5.5207 0.65107 5.9655 
9.0142 11.295 11.34 
1.7468 2.4689 4.1893 
2.2879 7.125 3.7755 
7.2201 1.6695 3.9336 
2.9762 4.6217 0.86149 
11.569 10.691 6.9629 
10.394 6.2624 6.1775 
11.614 9.1169 4.0414 
2.8139 6.0297 8.0661 
1.4786 4.4467 5.1414 
5.8748 2.8998 0.91646 
1.598 6.3367 3.962 
3.6903 2.0383 11.137 
8.6493 10.593 0.72193 
3.805 5.029 3.9761 
8.799 0.27579 7.9585 
9.3426 10.24 2.3823 
2.1178 2.7136 1.6043 
0.14687 3.8713 8.2493 
11.182 11.662 7.3088 
11.539 5.2048 11.423 
4.9086 1.6723 7.3862 
7.1016 1.1914 6.7212 
0.37103 7.8097 11.055 
5.7103 3.2762 3.355 
6.7181 8.5534 6.9055 
0.14748 11.101 11.82 
9.1751 9.208 12.305 
6.3099 1.1096 1.3778 
1.6374 9.1845 6.0671 
1.8858 10.915 10.642 
3.4477 11.851 10.12 
3.9434 10.416 5.7049 
7.004 11.91 1.2265 
12.32 1.2581 8.2291 
5.5147 7.1963 5.0366 
5.0055 3.3092 2.5046 
5.7107 1.5459 8.1223 
8.2214 3.3456 12.37 
4.6719 12.245 2.7652 
12.095 6.2306 6.2382 
8.6137 5.6596 0.99845 
7.3153 2.8658 12.022 
0.91865 11.105 7.8814 
6.2888 11.534 6.4238 
6.8957 2.4049 10.639 
0.51093 3.4888 1.6432 
4.1204 7.1017 1.69 
0.31555 5.613 11.96 
8.0277 7.5578 6.179 
12.03 8.3823 1.623 
2.2909 5.4227 8.8461 
11.53 7.8674 5.585 
2.0758 1.4785 12.398 
8.3565 6.8373 11.256 
6.3269 0.74493 0.31966 
7.0567 4.1023 6.6249 
0.67006 7.9182 0.20242 
3.1079 7.4334 12.048 
11.927 4.1348 6.9664 
0.91549 10.827 0.7156 
8.906 1.106 12.577 
8.4348 0.62417 9.0624 
3.5327 4.8013 7.5904 
2.4807 5.0128 7.8418 
12.314 0.83821 11.457 
9.8206 5.1991 9.3845 
2.658 11.588 6.7151 
4.3736 5.4988 6.8501 
8.8775 5.7858 3.9368 
5.2795 2.3138 10.493 
5.836 4.3027 12.26 
4.3272 5.3699 8.8222 
2.0379 1.925 7.0294 
2.7102 5.664 10.701 
8.8728 0.20132 3.6675 
2.868 5.3671 3.5736 
3.4546 7.2307 8.794 
3.0794 1.3352 7.4171 
0.61423 7.3409 2.6685 
3.6111 8.0299 1.5469 
0.43626 7.768 4.0982 
11.846 10.646 2.9758 
3.6973 2.1023 7.9742 
12.113 10.028 10.977 
11.347 9.6625 3.1032 
3.1015 8.0328 4.6756 
2.35 1.9192 10.713 
5.2394 9.2077 0.8024 
10.846 11.873 5.5074 
4.1745 0.91009 8.7638 
8.1223 0.24918 4.4613 
0.79646 8.6213 6.3433 
5.9752 0.44686 10.874 
2.9012 6.1574 6.1268 
5.3078 11.639 5.857 
7.6918 11.802 2.6936 
7.4973 10.329 1.053 
12.162 3.0886 8.5345 
9.3498 2.8291 2.6109 
12.524 8.3758 8.6826 
1.801 1.4369 8.6046 
0.27777 9.6066 10.428 
6.2105 0.38264 1.9831 
2.5676 10.976 11.504 
0.33127 2.2637 1.0655 
11.602 6.5427 10.746 
9.729 10.579 8.6064 
11.178 6.0255 5.3673 
7.7661 3.801 11.519 
12.54 12.275 6.1114 
6.612 8.4362 9.8269 
10.382 6.6002 3.2547 
5.5185 7.7073 10.969 
9.9094 3.3713 11.423 
1.3281 8.9323 8.0292 
12.516 0.12068 4.072 
3.7596 5.3254 2.2308 
8.9396 6.0299 8.7478 
1.4161 1.3089 7.616 
11.58 2.5015 7.2444 
8.2292 5.1295 8.7809 
7.5265 5.4498 0.94508 
5.4477 1.2528 10.282 
3.6272 7.121 4.4153 
2.0796 0.37557 1.6635 
2.0769 7.1157 10.987 
7.3595 8.9519 10.461 
3.2943 4.7502 4.9442 
8.7606 0.39955 11.72 
2.5692 7.486 9.4009 
11.015 10.073 4.2083 
9.7958 0.58251 11.513 
5.5825 4.334 7.8818 
1.227 12.364 1.9466 
2.688 9.0352 4.5601 
6.2315 1.8159 0.38339 
12.26 6.1921 10.222 
6.953 6.1181 11.836 
8.1425 9.5979 6.0416 
1.6045 1.0845 10.676 
4.3448 3.7024 12.503 
5.4552 1.218 3.3453 
3.7147 10.172 6.7534 
2.8303 7.6202 9.8624 
0.56281 9.8124 0.71133 
10.58 0.48393 12.481 
3.5436 2.4196 6.1282 
12.322 3.4732 5.3581 
6.8288 8.723 12.253 
4.5788 4.2181 0.98541 
1.6812 10.089 1.902 
1.1527 2.6702 10.982 
2.9801 3.6463 3.0735 
2.361 11.835 3.6556 
0.81574 5.5492 1.8806 
5.4234 2.6173 8.4568 
9.4386 9.5096 3.221 
9.0834 3.8565 6.92 
4.5978 2.5974 12.489 
2.6187 11.815 10.818 
5.4784 11.301 4.1517 
5.3318 11.568 2.1909 
6.5356 1.9494 2.238 
5.8319 5.2781 10.29 
4.0706 4.7861 11.933 
10.964 1.0049 4.3235 
3.3334 7.3586 12.442 
7.6039 5.591 9.6607 
6.4289 0.9829 8.8269 
10.991 6.9526 2.4082 
11.992 2.7648 9.5577 
1.4291 2.8654 6.2969 
10.338 2.2546 2.7337 
4.87 8.2295 8.8027 
3.2324 7.7488 3.5983 
9.2284 6.5203 3.2067 
7.7068 8.6228 6.3029 
6.8121 3.1223 8.5709 
11.443 6.4646 3.3747 
8.1961 1.6475 0.80875 
6.9462 6.1665 1.4912 
6.3133 1.4865 5.9975 
9.9577 8.2407 1.0631 
12.03 11.638 12.291 
9.1248 8.2907 3.7967 
11.29 4.8883 9.3538 
0.96384 9.0479 3.4108 
7.3056 1.8645 11.487 
9.5843 12.077 3.7197 
1.1108 5.7258 6.7532 
2.1198 7.5949 7.0256 
6.7017 3.8333 3.2261 
3.0074 11.647 5.7201 
11.476 7.2148 7.8149 
10.38 0.17886 0.91838 
1.9815 10.642 8.0075 
12.276 6.4061 12.08 
7.9129 12.383 7.1522 
0.3502 4.1126 10.874 
8.0784 8.5061 4.4058 
9.704 4.9983 4.1045 
3.8849 7.921 0.51294 
4.2393 3.47 1.7421 
9.6618 2.0199 1.8858 
9.9985 2.2929 6.4165 
10.296 9.8968 2.7477 
9.5196 8.6926 10.542 
3.245 11.669 1.6216 
1.557 4.777 2.3206 
12.457 9.4001 5.7183 
8.1396 11.417 10.719 
3.5104 1.9066 11.943 
9.8918 6.9505 12.34 
0.96346 3.7973 5.8502 
2.5055 7.1013 8.1988 
0.60078 2.9553 8.6917 
7.6638 7.3027 2.9572 
1.3088 7.0414 4.0865 
10.721 11.037 1.4133 
1.6617 9.5732 12.539 
1.3503 5.0016 9.2327 
8.4956 3.7971 5.2896 
10.718 5.5946 7.8067 
8.334 11.757 9.7288 
4.8146 9.919 6.6617 
2.4506 0.97997 2.7433 
9.3255 6.3222 5.7483 
3.0853 9.3297 10.279 
10.804 0.20202 10.576 
9.606 5.828 10.364 
0.90993 12.029 5.9232 
2.0764 1.6389 3.6287 
11.074 4.8242 2.9702 
8.1683 4.9734 1.6915 
12.187 10.378 2.0113 
8.9134 4.903 6.8657 
9.1529 10.675 5.2706 
12.246 11.567 10.023 
12.286 0.52492 1.9385 
11.121 3.6326 2.7633 
6.693 4.8677 7.631 
2.0547 11.896 1.4553 
1.3328 11.329 5.165 
1.6108 7.4618 8.8797 
12.404 7.2979 6.0341 
1.8529 2.5032 5.2843 
0.734 4.7595 4.2797 
5.1388 8.4567 2.8872 
11.725 12.323 2.2938 
9.5534 0.22847 12.488 
10.745 10.725 11.27 
3.1971 1.1729 8.4586 
9.3689 5.9917 7.9361 
11.828 2.0905 8.734 
2.4508 2.5936 6.2234 
1.9612 4.3773 8.5952 
6.8937 10.129 7.5179 
7.5184 3.8189 5.6927 
7.0174 11.805 5.5407 
3.0354 5.6068 7.0728 
4.4732 1.3817 0.32651 
2.5715 0.85062 5.7645 
4.9181 5.6072 10.622 
10.193 2.5104 12.045 
8.5405 1.6398 1.258 
12.21 9.8715 0.39971 
4.3153 7.7294 3.3738 
12.232 5.7484 11.163 
8.0554 1.7012 9.1013 
11.466 5.3787 6.1864 
0.53798 0.49646 5.8672 
4.1674 11.476 12.271 
1.987 3.5405 12.167 
4.8871 11.87 4.8587 
11.177 9.6282 8.7791 
3.021 7.5487 11.406 
1.6388 6.2793 11.571 
3.8563 4.6247 9.4398 
4.8814 3.8933 5.4102 
2.6491 6.6331 10.164 
4.2457 6.6782 3.5074 
8.1693 5.6786 6.7854 
11.031 8.4326 3.4286 
1.1421 6.6423 1.9305 
6.6016 11.339 4.875 
1.8426 2.9295 7.3189 
1.75 0.96114 9.2251 
11.762 1.3441 4.8407 
0.66154 0.9802 11.142 
3.6415 9.7664 0.8112 
3.5259 7.6859 9.8516 
10.728 2.7243 11.122 
8.029 9.0358 12.353 
11.374 0.5373 0.61357 
4.4211 11.185 11.261 
10.391 7.8524 12.001 
3.9187 9.0633 11.487 
10.485 8.1636 5.1913 
2.6587 11.568 0.67317 
2.5258 1.9906 8.0121 
4.5608 0.16056 4.4878 
1.2617 1.9414 1.5416 
1.3977 12.309 12.335 
2.2144 11.557 12.336 
6.7788 0.56512 5.7571 
8.0668 10.194 3.7305 
8.8385 2.3295 9.6586 
5.5749 2.4891 7.2116 
2.4742 7.9957 12.522 
12.088 2.5976 0.43148 
11.921 6.7954 5.2127 
1.7412 10.2 6.4486 
0.73727 9.7927 6.2217 
7.8939 11.35 1.0247 
6.8837 3.2697 1.1944 
3.5577 3.0651 0.10302 
3.0161 11.828 9.1093 
4.6995 0.41084 0.83624 
4.5732 1.3847 10.882 
2.8608 11.659 3.1641 
11.387 5.4734 3.7482 
2.1082 2.5141 8.8041 
5.8137 12.112 2.9543 
12.039 2.2542 1.5192 
1.5439 0.58689 0.066481 
3.9456 5.9543 5.7925 
1.9975 7.2889 1.3706 
10.733 12.254 6.5261 
5.8852 4.6783 0.59091 
5.1371 5.7879 8.2961 
4.3951 7.3668 9.3209 
11.968 4.588 5.6332 
1.7113 12.109 4.4674 
0.7287 6.8247 3.6507 
5.7678 11.944 9.4038 
9.8403 8.7158 11.603 
5.3852 1.0812 9.1258 
4.8667 0.35994 10.517 
3.503 12.114 7.1332 
3.0207 7.1537 1.7976 
9.5026 11.979 1.7736 
0.19201 8.6285 0.96271 
4.5632 10.661 7.3939 
2.5864 0.99053 10.18 
5.4241 3.8267 9.898 
1.8206 4.4451 6.1827 
3.5894 8.3629 10.68 
4.3132 3.9484 10.24 
6.9943 12.413 6.4886 
1.7405 11.041 4.2115 
6.2661 9.2503 1.5791 
8.9283 7.7616 10.939 
0.64694 7.9261 6.7984 
4.9139 9.2888 11.779 
7.1252 6.9503 11.101 
11.172 11.436 2.6323 
5.0618 2.0378 9.4302 
0.92484 3.7541 10.046 
6.9338 0.29689 1.0945 
8.5953 6.9705 2.4028 
11.761 4.1712 0.82235 
3.2889 4.6433 2.9112 
10.493 9.3009 3.6436 
1.9174 2.4691 12.296 
10.497 10.999 4.2454 
7.0016 0.74501 11.368 
1.3701 8.2666 1.423 
2.1089 3.0164 0.49935 
8.2487 1.8036 10.968 
3.628 2.8634 9.7747 
8.6743 11.543 3.4183 
4.9158 10.361 4.0766 
3.692 8.6648 7.8362 
2.2481 1.4304 1.796 
1.9731 2.0551 2.6366 
7.931 2.8019 5.5647 
9.0012 2.7202 5.2712 
0.38721 6.5341 6.5763 
10.724 4.5456 7.5263 
2.4147 0.62959 9.0583 
6.8401 3.7074 2.1868 
10.545 0.47162 5.9573 
0.2816 12.576 8.7426 
10.085 11.567 11.012 
9.4212 4.3431 11.432 
11.827 8.9235 0.70663 
2.1005 3.4928 3.702 
2.8796 1.9868 5.3642 
12.289 11.798 4.3597 
11.384 2.7254 5.4832 
2.5425 10.027 11.965 
2.9744 1.9231 4.2288 
9.0099 10.521 3.3918 
5.1927 4.8597 5.0279 
6.8592 3.3592 11.144 
1.4725 12.317 0.90233 
7.7701 10.399 6.8406 
2.8948 5.3523 1.5957 
7.1967 6.348 0.2881 
6.5751 10.945 1.2838 
0.23107 10.343 5.4841 
1.9758 9.0644 1.7456 
6.9383 6.4157 10.042 
0.06658 9.8027 7.5997 
9.0304 7.8545 6.64 
1.2237 4.7212 10.377 
7.6309 12.395 9.1623 
5.3393 3.6392 0.33788 
7.8233 7.1485 9.227 
2.9643 10.817 11.084 
2.8417 7.7601 5.6883 
11.146 2.8278 8.2245 
2.8515 9.0947 2.3862 
10.12 3.1258 3.3356 
3.6551 11.228 6.5141 
10.643 7.0146 11.352 
10.362 6.4216 1.6764 
3.0448 7.7942 7.5522 
1.3461 10.713 2.6342 
0.76361 5.705 3.6376 
3.6928 7.1639 2.6774 
5.4781 9.9808 1.8664 
1.6991 7.8985 0.51632 
2.5732 7.3491 2.7719 
9.8681 10.465 6.1469 
7.5939 2.1979 4.7752 
3.2506 2.7611 10.878 
9.8471 7.0122 2.403 
10.987 7.4042 10.338 
12.476 9.5331 1.4066 
1.0648 4.6923 3.2645 
3.972 6.4817 3.6221 
9.9168 8.5842 3.0927 
6.5843 4.2374 8.5674 
11.925 7.1524 0.10937 
8.0058 0.71323 10.994 
9.6534 3.9108 8.7753 
11.714 9.6357 7.2396 
1.0042 1.8564 3.6557 
0.74456 10.661 10.232 
3.9143 1.5316 4.7936 
11.482 7.884 0.77948 
9.8751 12.433 5.5722 
1.0294 6.505 4.8184 
10.688 5.8095 8.9227 
2.7247 1.9049 11.766 
2.0213 12.233 9.3297 
7.9215 6.5128 1.0893 
4.4112 6.066 0.93177 
3.5408 3.6571 9.0947 
1.8668 10.602 3.7222 
7.655 7.7819 5.1212 
10.502 1.0136 7.9627 
7.6182 8.6516 11.462 
4.5678 7.0793 0.70424 
4.4984 1.5559 11.922 
9.9166 0.96052 4.0516 
3.9565 8.0089 6.7972 
0.6868 10.634 4.5265 
6.6293 11.776 2.2584 
0.11398 8.9912 9.5541 
4.4983 3.6972 6.3963 
11.274 1.7321 2.9938 
1.5129 7.098 7.8013 
3.4083 3.4671 6.3436 
7.5737 2.0235 10.165 
8.5896 1.2432 6.3163 
1.6403 4.8473 7.1685 
4.8685 10.138 8.2951 
6.5533 10.245 9.3233 
4.1463 7.3904 6.1103 
8.3219 2.3463 11.913 
8.1871 10.252 5.2004 
2.3758 7.051 0.40546 
9.9884 4.5764 10.327 
12.267 4.7554 0.13263 
11.738 8.808 9.2145 
6.5093 11.105 10.108 
7.585 8.0979 4.0113 
3.5532 10.957 7.5586 
11.137 10.339 2.18 
12.531 7.5858 0.95293 
9.5787 6.9526 6.6157 
11.619 1.2256 1.4679 
10.105 0.92941 10.559 
4.0662 7.8369 11.511 
8.7633 5.3532 5.8619 
5.0809 8.1775 0.32195 
8.4481 3.3281 6.2818 
12.07 6.6676 2.5476 
1.396 0.97791 3.1459 
5.0567 8.8292 1.8609 
8.6843 12.52 5.3726 
2.5211 3.7024 1.23 
9.1225 6.6287 4.7322 
10.926 8.5761 1.4339 
10.133 3.5344 6.9771 
5.3166 6.7001 3.5699 
10.21 9.4595 12.508 
0.66305 1.5688 8.4414 
7.5948 3.2649 2.8796 
1.7068 11.83 11.408 
0.28522 3.1736 0.56685 
4.7412 8.8426 4.8633 
6.3145 12.226 7.3092 
4.1794 5.3875 4.9247 
10.863 2.0447 9.1788 
5.3243 0.35892 2.6374 
2.9883 4.1468 8.3084 
11.834 12.245 8.0029 
7.298 11.95 10.107 
3.3311 9.9203 11.143 
2.2234 10.867 3.2109 
8.5096 9.9544 12.576 
11.692 9.33 2.1062 
0.60792 0.38336 1.4326 
11.73 1.7066 9.8008 
1.3457 6.7957 4.4488 
4.1838 4.8723 10.853 
7.0929 0.35394 7.421 
6.0701 12.231 4.0568 
6.3419 5.1054 6.5674 
9.2132 0.80341 7.1004 
2.3072 9.4553 9.5525 
2.4911 12.527 7.3195 
0.67696 3.4752 11.693 
6.5464 10.873 5.559 
3.9112 5.815 7.7658 
2.774 3.8095 0.17775 
5.586 2.3527 2.6482 
7.6849 7.5598 4.0237 
11.559 4.0078 4.7618 
11.569 9.7409 6.1772 
3.548 2.7409 2.8701 
7.0613 4.7058 3.7406 
9.4173 3.2565 1.5814 
8.938 11.592 0.93971 
5.5626 4.5215 5.9886 
7.1813 11.826 7.9737 
8.2093 4.3685 6.2942 
9.1051 7.3856 5.614 
8.6908 8.2941 3.0974 
6.161 7.3093 5.4304 
4.4896 11.929 6.5965 
0.42944 7.9798 1.8163 
5.9653 10.105 0.93206 
8.8869 8.7601 2.7167 
6.0791 11.129 3.2641 
5.8127 7.5486 4.1292 
0.6167 5.1142 7.4638 
4.6451 4.4118 2.0974 
10.417 8.2508 9.9029 
9.2851 11.686 5.1534 
6.1042 9.8337 5.6379 
6.4667 5.5921 9.4946 
4.3845 11.402 4.0327 
11.457 6.2121 1.7413 
10.279 12.11 12.428 
3.4832 11.07 4.9528 
11.874 5.3796 1.0271 
1.4353 9.6021 8.9194 
9.9619 4.5698 5.0553 
12.574 10.607 1.0811 
6.952 3.7933 7.6448 
7.0334 10.378 3.7822 
5.4055 9.1837 6.1963 
4.2301 9.5772 7.5321 
6.2988 9.2071 10.55 
5.4756 2.936 4.3373 
12.344 4.6444 11.801 
10.729 1.7364 5.8571 
9.1275 8.9108 0.80222 
3.887 0.44229 5.2386 
6.3822 2.3544 7.8652 
3.5855 1.0463 10.595 
2.9586 4.9242 12.493 
0.71866 5.9125 11.004 
8.1746 6.0347 2.0201 
8.9033 4.1892 12.428 
1.1312 8.8831 0.53189 
1.2298 7.5691 11.737 
12.484 2.5748 4.8059 
3.1086 5.8012 5.1274 
9.3318 0.6562 5.7249 
6.0239 5.1889 8.4881 
1.7004 11.087 7.0814 
4.2586 6.2694 2.4068 
7.3734 5.0788 6.21 
10.735 8.9767 2.4683 
0.87953 9.3877 11.862 
3.7398 5.9143 10.841 
6.5914 5.0788 1.4827 
2.2132 7.0864 12.038 
6.2562 4.0612 1.3792 
5.747 8.7658 5.3309 
8.3069 11.74 7.9564 
4.4836 2.3666 2.6185 
8.9923 9.5503 10.123 
4.1995 10.758 1.2843 
2.0735 11.454 8.6639 
11.014 11.869 8.664 
9.4976 3.2065 6.1338 
1.7556 6.2951 8.4325 
1.5459 0.9276 8.5016 
10.176 11.041 5.2626 
4.2465 3.9663 7.4323 
9.1801 9.732 5.7336 
10.315 9.7208 11.447 
5.3208 7.35 9.9223 
4.5878 8.8684 6.788 
0.85907 8.8074 10.95 
10.858 1.0045 9.7962 
12.416 6.501 9.1481 
2.9622 11.581 2.7849 
4.7001 7.3038 4.2798 
2.9817 8.8022 3.4525 
11.216 12.162 0.89734 
0.17327 12.361 2.1766 
6.2719 7.1576 10.492 
10.631 5.4013 10.026 
10.114 6.0934 11.755 
5.7486 2.8701 9.4504 
11.286 1.7413 7.9158 
5.7764 6.3375 9.8837 
5.0205 12.492 1.7565 
12.01 9.1127 3.7199 
3.4904 9.6644 12.302 
0.55527 2.7913 9.8067 
3.9793 5.0933 1.2074 
12.27 10.756 4.7136 
2.4601 5.6117 11.852 
5.0015 1.4715 2.4127 
10.108 8.1284 2.1248 
2.4954 8.1304 1.865 
11.867 6.9751 9.7792 
11.3 12.394 12.477 
8.1574 8.2888 3.3401 
8.6574 10.601 6.2256 
9.0275 12.334 2.7379 
8.2879 9.706 4.6483 
12.149 7.4078 8.7966 
5.2279 0.71488 7.053 
2.5002 7.1015 4.8488 
10.503 1.8623 3.7651 
9.0003 6.8287 10.333 
9.919 3.9056 4.1574 
12.264 7.762 4.8325 
2.3911 9.7484 8.4197 
12.068 4.4888 2.7598 
6.137 3.1528 10.389 
8.4962 3.4438 9.7162 
4.8524 4.7707 9.8106 
1.7864 1.4584 9.6793 
9.196 11.408 9.1229 
5.9246 3.8595 11.288 
7.428 11.972 4.4894 
0.19935 10.478 8.4775 
9.7729 12.558 10.665 
6.4113 3.749 0.34971 
8.2188 6.623 4.1836 
11.252 0.94672 5.3235 
7.8209 5.9745 5.7961 
7.5376 7.2117 1.8282 
2.7277 10.38 10.09 
6.2988 1.8622 3.3217 
12.002 0.94182 12.507 
5.5254 8.474 10.179 
5.12 0.69978 11.559 
7.6818 4.2882 2.4028 
7.7185 4.7534 7.1685 
7.7801 10.695 0.161 
9.1632 4.8415 0.60602 
3.782 11.536 0.68046 
8.5987 4.4669 7.7807 
3.1987 6.6724 3.4903 
10.055 0.1578 2.0781 
7.2284 6.5737 3.7079 
2.9387 6.3646 12.408 
5.7232 0.15836 0.97726 
10.87 12.588 2.866 
4.0892 11.93 9.1996 
8.1666 10.812 2.7597 
3.6405 2.5696 4.8171 
6.4651 5.2191 12.265 
0.90782 2.0033 5.934 
5.9471 8.6129 4.3177 
6.0081 0.92314 5.0419 
7.8045 2.8154 11.072 
1.7356 9.1182 5.0096 
4.2717 9.8104 4.8356 
5.2767 12.139 10.949 
10.668 7.4858 1.4898 
9.8481 0.99344 0.45777 
7.8062 7.7888 10.862 
9.0959 1.5723 8.9702 
2.6027 6.6318 7.1512 
6.3259 5.7184 2.3508 
12.585 2.3058 6.9379 
8.5971 7.3274 3.4884 
7.5024 5.9927 10.877 
3.3878 0.61892 6.6945 
3.4072 0.96229 9.5279 
4.2906 1.4516 3.1871 
1.9184 1.6644 5.9855 
3.1488 10.704 1.0803 
11.656 11.664 6.372 
11.554 5.2061 7.2428 
6.8506 11.896 3.4129 
9.3658 0.92817 9.7457 
2.158 8.3821 2.8784 
11.255 5.0608 0.21984 
3.6894 12.461 6.0964 
0.73514 9.2725 5.3299 
0.52166 7.4315 5.1622 
12.443 11.955 7.1703 
5.0126 11.936 8.6326 
1.5368 6.8686 2.9891 
8.3707 8.8881 8.0788 
1.7576 6.1327 9.464 
10.517 10.795 10.217 
8.2005 3.086 4.5295 
0.35464 3.1256 3.0688 
0.34196 5.6085 6.0452 
2.6505 3.1096 8.0276 
7.1476 9.3295 9.4682 
8.6734 12.279 8.7985 
2.012 10.782 1.0504 
6.6973 7.4484 2.4706 
4.1236 7.6944 8.068 
12.437 12.603 11.991 
6.2621 0.48884 6.7136 
3.2262 1.9187 10.115 
1.7936 8.2394 9.6887 
5.6753 2.6345 12.576 
3.0875 8.9405 1.3454 
2.6344 0.97506 11.245 
12.373 4.7782 7.7773 
6.7714 6.0069 6.0644 
1.8277 9.1849 11.508 
9.3699 11.117 6.8981 
8.3722 5.7481 4.8986 
2.364 3.5762 6.6289 
3.9244 8.0376 6.9889 
9.0132 12.172 7.2441 
12.545 5.8022 0.2315 
9.2063 6.3269 1.7704 
5.4159 6.5656 10.829 
2.6283 12.419 6.2884 
6.8148 11.64 9.16 
11.134 9.6023 1.2513 
11.492 0.66651 7.7848 
8.5887 9.2332 3.8065 
2.8391 2.2474 0.14556 
10.022 4.0705 12.284 
12.418 0.52481 6.6283 
4.4536 3.2885 4.5342 
12.031 11.99 9.0615 
8.1867 4.0237 3.3254 
11.257 3.1877 0.76743 
2.1491 3.9855 7.5983 
6.8797 5.2511 10.461 
11.735 4.4427 3.7947 
9.1004 1.1348 4.7756 
3.9935 3.7759 2.7127 
0.42611 6.2742 2.6681 
3.1562 1.702 1.2463 
11.932 9.4172 10.101 
11.945 1.8259 12.257 
4.8182 11.803 0.99781 
10.202 4.8934 0.38357 
0.56173 0.16517 0.33967 
5.7608 8.702 11.291 
8.4878 7.0441 8.3235 
7.9539 4.8041 5.3408 
5.0814 2.2075 0.68224 
0.52278 4.8552 8.5424 
10.214 2.0526 0.38064 
3.5678 10.977 9.4585 
12.472 4.6595 1.7924 
3.9742 2.1831 3.8506 
12.212 12.465 0.313 
11.985 3.5178 3.3142 
4.3234 0.57573 2.1143 
1.8591 9.432 2.7777 
10.327 3.1487 0.22676 
9.9226 4.5438 6.6995 
5.0032 5.8701 5.3973 
7.8831 6.827 10.321 
7.9482 5.0575 10.57 
6.1755 4.7293 4.6246 
5.6463 5.8536 11.617 
4.7356 2.9931 9.8468 
2.9679 3.1246 5.4702 
0.97611 11.126 11.142 
7.8626 0.79865 0.26112 
9.4937 1.7681 5.606 
7.9714 11.116 11.761 
9.2334 11.902 11.455 
2.0945 1.5544 4.7789 
12.555 10.891 7.4596 
10.251 11.256 9.2274 
4.7508 0.15951 9.2067 
1.8601 4.1653 9.6743 
9.6058 9.2002 4.2511 
5.9504 10.313 3.9264 
7.6954 10.885 7.7882 
9.0305 0.67208 10.711 
7.045 1.1718 12.35 
1.5444 3.4044 4.6645 
1.9202 8.0465 7.9789 
3.9115 2.207 0.64482 
12.491 7.2674 3.3936 
8.9491 10.85 0.10236 
4.7995 2.6402 6.4589 
2.7677 10.737 4.1664 
0.43021 0.91046 3.6487 
5.5506 7.3754 0.93752 
8.5055 8.3115 5.5503 
1.9802 4.5549 0.20172 
3.5513 9.0849 6.8346 
10.416 2.813 4.3031 
3.3115 8.3679 12.019 
7.6444 2.5766 0.93737 
0.81584 9.7133 2.5952 
9.1212 6.5807 7.5671 
4.7029 10.655 2.223 
8.9098 8.8955 6.3668 
11.376 7.9891 12.355 
4.3038 11.21 10.21 
0.44091 4.748 5.4252 
9.0021 7.1307 9.2718 
6.294 9.1809 0.48679 
0.54798 11.841 10.435 
9.3715 7.5541 0.39036 
9.2529 8.8791 8.6227 
2.6568 12.37 2.1721 
4.518 3.1111 3.4609 
6.8689 10.811 8.4469 
0.14879 1.7485 11.679 
5.7229 1.8218 4.3021 
2.6891 4.6125 6.8305 
3.5849 3.7271 0.94095 
11.36 3.6267 11.057 
3.5167 3.9358 10.943 
4.6645 10.905 6.3231 
2.3286 12.512 0.21056 
9.3341 3.1796 12.362 
4.9463 2.6457 1.6639 
5.3733 10.934 1.3329 
0.22801 12.019 3.4548 
11.488 3.8204 9.0279 
1.4932 0.25577 7.3706 
11.532 6.0972 0.14366 
4.4347 0.78695 6.2811 
7.3418 5.3795 2.1873 
1.5649 10.361 11.66 
11.291 3.031 1.8388 
2.3219 9.836 5.5699 
11.69 7.1957 11.659 
0.34456 1.3182 7.362 
10.211 10.032 1.6922 
5.529 9.6212 4.6751 
7.5736 9.6563 4.5179 
9.6077 3.8615 0.58408 
11.548 0.85452 10.686 
12.192 6.9012 7.0732 
6.2646 4.2875 10.383 
2.1614 8.1526 11.496 
4.529 5.8173 11.581 
2.3397 10.825 5.1393 
11.837 8.6501 6.2434 
3.9429 8.9201 2.0586 
5.6644 5.6969 4.5186 
7.2314 8.2802 1.8997 
10.69 0.1157 4.9581 
1.0289 1.9399 4.7635 
10.935 5.8773 2.6214 
2.211 4.4642 3.1717 
12.476 5.8705 7.2933 
3.551 6.9994 10.682 
3.28 10.661 3.2285 
7.5453 12.518 1.8569 
4.8265 0.99465 5.2191 
2.6821 0.67002 12.309 
4.0875 1.0635 7.6938 
0.93654 10.904 6.086 
9.1707 11.28 2.5124 
12.224 12.283 1.3433 
10.763 2.6481 10.034 
5.3831 11.45 7.0333 
11.982 0.32125 8.7005 
0.56555 9.9985 9.4155 
9.3374 3.7281 10.559 
1.9232 9.135 3.8263 
0.74123 0.59874 8.0824 
4.4575 11.718 7.6433 
10.897 9.2492 9.7908 
0.84986 1.9856 10.884 
8.553 6.6349 6.4069 
2.682 6.4729 9.0596 
5.9892 10.139 8.2564 
7.524 2.6806 3.7792 
5.0261 11.268 3.1688 
4.3083 10.158 9.2238 
3.3545 11.561 3.8743 
4.8463 10.294 10.153 
1.6959 12.108 6.6656 
6.1631 2.7142 5.1247 
6.0689 10.812 2.2323 
5.1226 4.9082 11.692 
2.2275 3.1338 2.5551 
0.18202 2.5035 2.1362 
5.5525 3.4737 6.2086 
10.065 7.8374 10.943 
9.3175 11.361 7.9617 
0.99795 6.9463 10.821 
8.5722 3.5253 2.4056 
9.8912 7.4431 7.5578 
6.1718 2.2981 7.9978 
11.011 9.0521 7.9012 
0.8669 4.8796 11.393 
11.55 4.0681 1.8519 
11.837 3.5345 12.309 
8.9157 4.7352 4.8863 
4.492 3.9611 11.409 
9.1379 12.514 9.7633 
10.145 9.2738 0.92819 
11.485 4.3566 11.954 
2.5802 9.8805 1.4109 
5.1211 3.3337 10.813 
9.8478 1.7326 7.3226 
3.158 10.03 4.9244 
3.4701 3.6972 4.7295 
5.7286 0.11206 8.7231 
0.89615 6.0041 0.10117 
9.2325 4.3337 5.8979 
10.852 10.177 7.7852 
9.6376 3.2927 9.648 
6.1709 8.3551 2.2213 
2.887 1.6413 6.4448 
7.4072 9.0361 7.5892 
1.6024 10.188 9.8648 
10.607 6.6443 8.0574 
9.7601 1.9858 4.5796 
8.1046 0.78472 7.2426 
5.2933 9.477 7.5612 
7.9545 9.8806 8.0737 
9.5425 3.6077 5.12 
6.5678 9.406 3.8229 
1.3524 12.01 3.4445 
3.9528 2.9399 7.0515 
9.0134 7.9417 7.9392 
12.575 11.021 3.6843 
4.1284 7.8675 5.092 
7.2381 2.0905 8.4711 
2.1243 5.5268 6.4578 
1.1964 4.235 12.213 
3.3076 5.1711 8.5801 
1.9578 0.21998 3.7732 
2.7872 4.5583 9.3236 
8.1355 9.5063 11.077 
10.274 4.1696 3.1979 
8.1261 0.10576 10.083 
11.206 11.922 4.4642 
1.0879 0.79426 9.1305 
10.616 3.6279 4.9511 
11.343 9.9006 11.768 
5.6369 0.24849 9.8184 
6.3665 6.7407 0.80533 
0.75902 3.143 7.6206 
0.19621 12.455 5.085 
5.5005 0.48533 4.1138 
6.5986 4.4695 5.7074 
6.7503 1.344 7.7864 
5.912 10.689 12.096 
6.1203 6.306 12.493 
11.703 2.0206 6.2746 
0.48922 8.3943 11.937 
9.867 7.3995 4.7654 
12.048 10.078 3.8634 
8.2294 6.8424 5.3069 
1.8759 11.694 2.5613 
4.4482 8.3406 9.8612 
0.91469 7.2963 1.0751 
4.1295 5.5953 9.8688 
10.471 5.9113 3.0757 
8.2424 6.1873 0.11728 
8.5918 3.506 0.68725 
6.3892 12.275 0.41805 
10.946 7.1695 5.0131 
8.9726 1.2607 3.69 
7.0278 10.953 2.8599 
8.83 4.1706 1.4908 
4.5516 1.5962 1.4209 
8.4278 12.076 11.826 
10.537 4.276 11.312 
9.7084 4.9425 2.8013 
2.2492 10.532 9.1333 
1.1153 1.1235 6.5851 
7.0484 0.25778 10.431 
5.743 7.5582 3.0238 
12.581 2.1424 10.299 
0.93324 2.4372 11.866 
10.298 3.2102 2.237 
1.1326 4.8506 5.1161 
11.052 2.006 1.9619 
0.94965 1.835 2.5592 
0.26192 5.1956 2.7494 
5.231 9.4381 10.663 
3.1783 3.3141 2.0126 
7.3369 2.0677 2.892 
9.7719 6.3079 9.4051 
9.9242 3.0752 8.1422 
11.502 2.9237 4.4559 
9.7409 5.2152 7.5094 
3.8986 12.42 3.5831 
5.9394 6.2859 8.8167 
11.583 1.8802 4.0676 
6.9811 7.8931 6.0371 
5.8218 8.0651 9.2113 
1.7258 4.4001 4.1146 
9.827 0.17516 7.7419 
0.92345 11.049 3.539 
12.223 9.7913 9.0877 
12.444 4.5786 4.6384 
6.4965 7.6349 1.423 
8.1561 11.707 0.084075 
10.965 8.9555 6.8206 
4.2875 11.635 1.9313 
3.6602 6.0594 4.2492 
7.1856 6.9203 5.6139 
11.371 10.249 9.6617 
5.8391 9.74 11.495 
6.8041 9.1687 2.5408 
11.341 3.7365 5.7952 
10.732 8.0592 6.2698 
0.57547 3.8382 4.8342 
4.7241 2.2353 4.6409 
10.934 6.4117 9.8308 
0.79816 0.09273 2.9395 
9.2602 4.9277 8.5086 
4.5205 4.9332 5.883 
1.7299 0.59733 11.702 
7.8298 2.2773 10.081 
6.6296 1.7694 4.9103 
0.092847 6.9336 1.7969 
5.7722 8.3857 1.1931 
2.0562 8.9108 10.493 
4.2175 11.065 8.4832 
7.766 5.6389 3.988 
8.1374 4.5512 0.67928 
5.2905 5.5167 6.4187 
7.2079 0.84611 4.7663 
3.7638 4.441 6.6257 
8.4008 6.3104 9.5944 
2.6365 10.553 7.0781 
3.1917 2.6313 8.8186 
12.428 3.536 4.2702 
4.851 12.103 9.9497 
4.3263 0.13335 7.1646 
5.2915 12.421 7.7023 
8.6089 10.298 11.583 
6.2911 7.2984 8.3288 
10.818 0.85037 11.457 
2.5035 12.436 11.77 
5.4621 1.7103 11.392 
0.091457 8.9069 2.2459 
0.88372 5.6447 9.9613 
8.8772 2.3174 6.3056 
5.2385 11.498 11.894 
3.9826 1.7237 6.8129 
4.8982 11.109 9.3179 
10.572 4.3383 2.1606 
3.7475 5.77 3.2026 
5.0837 4.6532 8.7401 
1.309 3.7938 6.8947 
1.4193 5.8074 2.7216 
4.2975 12.069 8.2323 
5.4774 5.4531 12.609 
8.514 10.668 9.534 
6.6112 4.7254 2.6316 
2.8632 2.9401 11.976 
6.8437 10.11 1.9348 
10.033 8.4777 8.0107 
2.5298 9.0226 12.3 
4.3614 2.7821 8.8527 
3.6759 6.1927 8.7271 
6.7814 1.6022 8.4162 
3.7945 0.76644 4.0393 
6.384 6.085 10.89 
9.4524 9.9357 0.40796 
7.4867 5.4265 12.54 
8.635 2.5176 1.4099 
10.464 10.289 0.67667 
2.5644 9.4756 6.612 
12.476 5.2179 3.7786 
6.9864 1.0502 3.0996 
11.129 8.0322 11.228 
9.2631 9.8451 6.8211 
0.24026 2.0157 2.1523 
1.3899 2.7727 3.2446 
7.0784 0.85146 2.0644 
9.4501 5.6284 4.9471 
0.48884 4.1618 2.4949 
8.2214 12.436 1.0072 
2.5896 6.1784 4.2696 
2.803 8.3519 6.6411 
9.1791 4.3261 9.6517 
4.4909 3.1218 0.76431 
10.334 7.2371 9.3957 
2.5892 2.581 3.4158 
5.3258 7.1672 8.8146 
8.1884 1.9037 3.4676 
1.202 2.8397 2.2002 
8.6876 0.12733 6.437 
1.1982 6.3876 5.8771 
3.9921 10.561 0.18494 
2.3229 6.1991 3.178 
1.3551 1.0062 4.2497 
6.6616 2.2227 1.2455 
12.46 5.822 1.8675 
12.293 3.6555 11.56 
10.387 11.902 10.051 
5.292 4.0017 4.3007 
8.8124 3.9125 4.2337 
5.4607 6.9417 6.8493 
6.5056 2.5986 4.0883 
7.993 1.2603 2.5723 
12.118 1.5695 2.3505 
11.511 5.1027 4.7354 
6.0754 2.9875 1.9535 
2.1606 1.95 0.87896 
0.41091 0.74983 4.742 
6.0259 4.1615 6.942 
1.5568 7.273 5.4035 
11.51 0.27923 3.7511 
2.4637 5.3302 2.5627 
10.813 12.511 7.7871 
0.43915 4.5773 9.6293 
11.143 2.7053 3.4226 
4.9 4.5661 5.5221 
0.97974 1.3596 12.269 
10.22 10.942 2.3409 
6.601 10.225 4.7349 
7.7013 12.358 11.063 
2.2164 8.8623 0.66532 
7.1658 7.5458 10.023 
7.1138 11.402 11.041 
6.2939 6.5987 3.0144 
8.6319 9.2333 4.9637 
4.8403 3.5771 8.2169 
3.7497 3.2562 8.0983 
9.7985 10.396 7.572 
1.8444 0.084451 2.7215 
11.625 7.7061 6.7324 
6.9792 5.649 3.1961 
8.4055 4.7576 11.527 
0.63341 2.768 4.1463 
6.5748 11.241 4.2497 
2.8609 6.4751 11.377 
8.8942 3.4125 7.8678 
10.049 11.905 7.3021 
9.5796 4.0072 2.2938 
1.9739 3.5122 5.6373 
8.0668 1.2761 11.947 
5.9136 2.4647 6.18 
6.3596 3.6832 4.2236 
5.3967 6.1808 2.5289 
10.699 11.752 3.5385 
8.9771 11.8 6.1636 
6.585 2.8256 2.9244 
5.0291 0.72634 8.1296 
0.19666 3.9193 12.524 
5.8964 2.6929 11.323 
10.145 1.2205 8.9879 
1.6196 0.31859 6.0673 
2.9596 4.299 3.9394 
4.0827 3.0124 10.717 
11.299 1.1305 8.812 
3.865 6.7405 11.679 
6.4311 5.6389 0.58571 
7.7372 8.4139 9.6167 
10.04 9.7242 10.368 
9.9408 1.2 6.4152 
8.9293 2.9996 8.8271 
2.8185 4.1856 5.8236 
2.8918 8.5327 9.5646 
5.4203 12.449 6.6253 
10.322 2.0344 8.2548 
8.836 0.19428 1.7877 
6.965 2.3767 5.7699 
10.622 6.0803 10.823 
11.14 6.8081 0.83249 
0.35928 11.242 9.3577 
6.3937 10.066 2.9603 
4.6953 6.3439 9.2277 
0.70816 0.35148 11.977 
9.9642 8.3373 6.9365 
1.4432 5.2629 8.1702 
6.8395 4.2156 11.905 
7.8209 3.1403 8.1727 
9.7081 4.1699 7.754 
0.52823 6.2437 1.0972 
7.133 4.3032 4.8002 
8.7207 2.8231 10.578 
9.6187 10.895 1.4207 
7.1503 1.379 0.78348 
5.2258 4.4665 10.747 
6.4974 3.6898 9.5192 
1.7814 5.2912 11.088 
11.708 5.9112 9.1745 
3.873 2.467 1.7034 
0.72926 0.53066 10.14 
6.7197 10.518 6.5421 
8.7223 8.6544 11.527 
10.88 8.0597 7.4485 
0.29997 0.97247 2.6096 
3.4524 3.1024 3.866 
2.8112 7.9357 0.84767 
11.875 8.5615 7.3367 
5.007 8.3308 3.9375 
0.14788 2.0614 9.1913 
12.003 7.6071 10.697 
0.52356 7.1573 7.4026 
5.4018 5.0334 2.7201 
12.057 10.895 9.0492 
9.6484 7.3446 3.7286 
7.0657 1.6925 9.4656 
7.8 4.411 12.374 
8.3165 4.0157 10.626 
6.8707 2.714 9.5768 
2.0004 12.136 5.5222 
2.6467 10.135 2.5023 
3.3782 6.8625 5.4743 
10.024 5.2222 11.161 
7.3101 9.5018 0.31757 
2.6186 8.7996 5.6478 
4.6362 2.6367 7.7563 
5.2142 3.3685 11.94 
1.6103 3.3454 8.3206 
9.3373 8.3362 4.8613 
9.5017 6.8816 11.309 
11.488 7.5117 3.2027 
4.5 9.7234 1.56 
10.867 3.4202 11.997 
6.2145 8.0339 0.28752 
8.1106 0.18256 2.6575 
12.069 9.157 8.2046 
9.868 9.1014 9.4929 
1.6587 12.007 10.348 
11.548 8.1956 8.3331 
10.978 11.502 11.965 
1.4678 7.9608 10.712 
3.1261 6.2346 2.4707 
7.9346 12.329 3.58 
11.229 6.1546 11.733 
7.9827 3.7363 7.2085 
3.895 3.0907 11.737 
4.8399 7.0954 2.6691 
11.028 1.4333 0.084624 
2.3181 4.4643 10.634 
3.1884 9.1102 8.6423 
3.6793 12.404 2.4204 
4.9024 9.2705 9.5918 
9.7965 2.3929 9.0971 
1.1994 3.9673 0.66411 
7.9103 6.1643 8.6492 
1.6882 1.6914 11.55 
6.1856 4.9329 11.272 
8.9477 8.5845 9.6106 
9.1331 9.8847 1.4111 
10.93 10.921 6.0564 
10.117 9.5459 8.4508 
4.6268 4.9949 7.7751 
8.2908 9.475 7.1175 
4.2671 2.0875 10.176 
12.296 8.0166 9.6893 
6.762 6.79 7.4184 
1.4683 5.3018 12.189 
8.8444 5.6125 2.7872 
10.878 11.281 0.34698 
8.8409 10.964 12.392 
6.4103 6.2899 5.0903 
3.1932 1.716 3.1401 
3.0384 10.878 8.5095 
5.9941 9.3103 9.5569 
9.0189 4.9145 10.632 
6.1803 8.5118 3.2919 
3.1049 9.7442 7.5783 
1.2213 8.4761 4.3079 
7.1708 8.2712 2.9884 
7.0673 11.457 0.26733 
6.7868 2.1827 6.836 
4.472 7.5485 10.566 
7.4281 1.4204 5.6557 
6.4089 2.0459 12.026 
10.964 1.7509 10.607 
4.7345 8.5069 10.968 
9.3955 2.7609 7.174 
10.889 4.061 0.21728 
0.80323 5.8501 8.87 
10.518 12.441 11.591 
10.982 3.6564 3.8628 