ITEM: TIMESTEP
500000
ITEM: NUMBER OF ATOMS
2048
ITEM: BOX BOUNDS
0 12.688
0 12.688
0 12.688
ITEM: ATOMS f_myave[1] f_myave[2] f_myave[3] 
6.96377 9.68023 8.47061 
5.90777 8.07593 6.18211 
2.95213 3.72484 10.042 
7.41499 10.9073 4.82763 
8.75951 1.76728 7.25775 
12.0517 1.00596 4.511 
11.679 2.6606 10.5984 
5.72785 12.5494 11.8311 
10.2734 3.89518 5.91892 
6.32412 9.17257 7.7666 
0.485754 7.59062 9.19528 
0.996372 3.96702 8.95635 
5.66278 8.62326 7.08802 
11.9846 4.53753 10.9642 
7.33216 4.31081 1.3695 
10.9123 4.68857 1.17995 
2.3376 5.47924 0.610618 
8.69237 10.5022 10.5618 
6.42374 0.966941 9.93367 
10.1109 6.26217 7.23512 
5.55145 7.26746 12.5355 
10.1531 11.9301 4.61479 
7.65951 11.2486 3.69427 
2.61479 8.82422 7.73749 
5.45101 6.75249 4.85444 
2.85091 8.95359 11.2516 
3.08547 5.62828 9.59007 
3.42714 6.97399 0.801382 
7.03008 4.61302 9.63665 
11.0247 10.6921 8.74593 
6.50776 10.4786 11.1234 
9.2601 9.5492 11.1829 
5.15023 2.85817 5.41705 
7.5096 3.63526 0.422561 
8.31005 11.3787 6.91925 
9.16457 9.85462 9.11018 
2.08597 8.74923 8.78206 
7.45747 0.984223 8.4904 
0.592837 1.22446 0.642124 
4.80529 5.78226 3.29476 
0.672152 1.74745 4.19477 
7.29967 7.37085 0.768343 
5.32583 11.5603 8.32628 
2.30366 9.92397 10.9149 
5.36574 10.2649 2.99637 
3.71657 6.37871 6.78179 
5.90802 3.79383 5.18165 
4.71188 12.5761 5.72236 
6.97404 4.65462 0.406286 
12.2708 2.61372 3.7369 
5.17182 7.48365 7.79047 
10.4852 5.46228 4.74533 
3.59363 6.16897 1.53852 
10.4556 10.9748 6.98747 
8.81939 3.63463 9.33126 
4.51524 6.5427 10.2792 
0.454261 0.360576 10.8842 
11.8115 12.4767 10.4095 
5.52074 0.651072 5.96554 
9.01417 11.2946 11.3397 
1.74684 2.46889 4.18926 
2.28792 7.12502 3.77554 
7.22011 1.6695 3.93357 
2.9762 4.62168 0.861487 
11.5692 10.6905 6.96291 
10.3942 6.26238 6.1775 
11.6143 9.11689 4.04144 
2.81394 6.02971 8.06614 
1.47862 4.44674 5.14136 
5.87484 2.89977 0.916455 
1.59798 6.33669 3.96201 
3.69029 2.03833 11.1366 
8.64928 10.5933 0.721927 
3.80501 5.029 3.9761 
8.79902 0.275793 7.9585 
9.34256 10.2397 2.38232 
2.11783 2.71359 1.60432 
0.146869 3.87128 8.24933 
11.1823 11.6623 7.3088 
11.5391 5.2048 11.4234 
4.90859 1.67229 7.38616 
7.10156 1.19143 6.72121 
0.371026 7.80966 11.0546 
5.71034 3.27622 3.35504 
6.71807 8.55337 6.90553 
0.147481 11.1012 11.8198 
9.17509 9.20797 12.3047 
6.30989 1.10961 1.37779 
1.63737 9.18446 6.06705 
1.88577 10.9145 10.6418 
3.44774 11.8505 10.1201 
3.94339 10.4158 5.70494 
7.00397 11.9102 1.22647 
12.3201 1.25813 8.22911 
5.51468 7.19635 5.0366 
5.00546 3.30924 2.50463 
5.71073 1.54587 8.12229 
8.22143 3.34557 12.3697 
4.67189 12.2446 2.76524 
12.0948 6.23055 6.23824 
8.61373 5.65959 0.998451 
7.31528 2.86577 12.0216 
0.918654 11.1052 7.88143 
6.28877 11.5345 6.42375 
6.89566 2.40485 10.639 
0.51093 3.48884 1.64319 
4.12038 7.10174 1.69004 
0.315551 5.61303 11.9601 
8.02773 7.55779 6.17902 
12.0303 8.38226 1.62296 
2.29094 5.42267 8.84607 
11.5295 7.86742 5.58496 
2.07582 1.47846 12.3977 
8.35647 6.83733 11.2558 
6.32694 0.744932 0.319658 
7.05665 4.1023 6.62494 
0.670064 7.91825 0.202417 
3.10792 7.43339 12.0478 
11.9266 4.13478 6.96642 
0.91549 10.827 0.715602 
8.90596 1.10597 12.5772 
8.43483 0.624172 9.06239 
3.53273 4.80128 7.59045 
2.48068 5.01283 7.84185 
12.3136 0.838207 11.4573 
9.82061 5.1991 9.38449 
2.65797 11.5879 6.71513 
4.37364 5.49875 6.85011 
8.87752 5.78584 3.93682 
5.27953 2.31382 10.4931 
5.83604 4.30271 12.2604 
4.32717 5.3699 8.82219 
2.03787 1.92497 7.02942 
2.71021 5.66401 10.7009 
8.87278 0.201317 3.66746 
2.86801 5.36713 3.5736 
3.45456 7.23074 8.79401 
3.07942 1.33521 7.4171 
0.614225 7.34088 2.66852 
3.61106 8.02987 1.54691 
0.436264 7.76804 4.0982 
11.8457 10.6456 2.97582 
3.6973 2.10232 7.97422 
12.1134 10.0279 10.9774 
11.3473 9.6625 3.10321 
3.10148 8.03281 4.67555 
2.34998 1.91924 10.7133 
5.23942 9.20767 0.802396 
10.8458 11.8727 5.50741 
4.17447 0.910093 8.76385 
8.12233 0.249179 4.46131 
0.796461 8.62129 6.34328 
5.97522 0.446862 10.874 
2.90118 6.15735 6.1268 
5.30782 11.6392 5.857 
7.69183 11.8022 2.69361 
7.49731 10.3295 1.05298 
12.1618 3.08862 8.53447 
9.34983 2.82907 2.61093 
12.5241 8.37579 8.68255 
1.80095 1.43691 8.60456 
0.277768 9.60663 10.4275 
6.21055 0.382635 1.98311 
2.56756 10.9761 11.5035 
0.331271 2.26367 1.06546 
11.6019 6.54269 10.7458 
9.72902 10.5791 8.60641 
11.1781 6.02548 5.36732 
7.76611 3.80098 11.5189 
12.5402 12.2751 6.11141 
6.61202 8.43624 9.8269 
10.3817 6.60025 3.25469 
5.51847 7.70725 10.9691 
9.90937 3.37134 11.4228 
1.32812 8.93234 8.02919 
12.5161 0.120684 4.07198 
3.75957 5.32537 2.23082 
8.93956 6.02991 8.74785 
1.41611 1.3089 7.61599 
11.5796 2.50147 7.24443 
8.22921 5.1295 8.78092 
7.5265 5.44982 0.945078 
5.44767 1.25277 10.2817 
3.62722 7.121 4.41533 
2.07958 0.375575 1.66353 
2.07687 7.11569 10.9866 
7.35953 8.95192 10.4614 
3.29426 4.75016 4.94419 
8.76059 0.399551 11.7195 
2.56915 7.48605 9.40089 
11.0148 10.0728 4.20829 
9.79578 0.582507 11.5132 
5.58253 4.33403 7.88177 
1.22699 12.3642 1.94665 
2.68801 9.03518 4.56009 
6.23152 1.81594 0.383388 
12.2602 6.19212 10.2221 
6.95301 6.11814 11.8356 
8.14245 9.59791 6.04158 
1.60455 1.0845 10.6757 
4.34478 3.70236 12.5034 
5.45521 1.21796 3.34535 
3.71474 10.1723 6.75341 
2.83034 7.62023 9.8624 
0.562813 9.81238 0.711329 
10.58 0.483931 12.4809 
3.54355 2.41964 6.12816 
12.3215 3.47323 5.3581 
6.8288 8.72298 12.2533 
4.57881 4.21807 0.985406 
1.68118 10.0886 1.90202 
1.15273 2.67019 10.9818 
2.98013 3.6463 3.07346 
2.36104 11.8345 3.65563 
0.81574 5.5492 1.88059 
5.42341 2.61726 8.45684 
9.43862 9.50957 3.22102 
9.08339 3.85654 6.92001 
4.59776 2.59735 12.4894 
2.61873 11.8151 10.8176 
5.47843 11.301 4.1517 
5.33177 11.5675 2.19088 
6.53557 1.94939 2.23804 
5.83194 5.27813 10.2902 
4.07064 4.78611 11.9333 
10.964 1.00494 4.32352 
3.33339 7.35863 12.442 
7.60392 5.59098 9.66065 
6.4289 0.982902 8.82691 
10.9914 6.95258 2.40817 
11.9918 2.7648 9.55769 
1.42913 2.86541 6.29689 
10.3379 2.25459 2.73374 
4.86996 8.22949 8.80274 
3.23239 7.74883 3.59829 
9.22842 6.52034 3.20669 
7.70677 8.62285 6.30288 
6.81212 3.12226 8.57095 
11.4428 6.46456 3.37471 
8.19612 1.64746 0.808754 
6.94617 6.16654 1.49117 
6.31331 1.48645 5.99747 
9.95769 8.24071 1.06308 
12.0303 11.6377 12.2908 
9.12478 8.29066 3.79675 
11.29 4.88833 9.35379 
0.963842 9.04793 3.41076 
7.30564 1.86454 11.4868 
9.58427 12.0771 3.71965 
1.1108 5.7258 6.75321 
2.1198 7.59485 7.02558 
6.70171 3.83326 3.22614 
3.00742 11.6469 5.72013 
11.4758 7.21476 7.81488 
10.3796 0.178858 0.91838 
1.98153 10.6423 8.0075 
12.2763 6.40606 12.0802 
7.91292 12.3825 7.15219 
0.350201 4.11256 10.8745 
8.07838 8.50609 4.40577 
9.70399 4.99827 4.10451 
3.88489 7.92103 0.512945 
4.23931 3.47003 1.74209 
9.66179 2.01989 1.88582 
9.99849 2.29293 6.41645 
10.2955 9.89675 2.74774 
9.51959 8.69257 10.542 
3.245 11.6695 1.62162 
1.55701 4.77702 2.32057 
12.4575 9.40009 5.7183 
8.13961 11.4166 10.7189 
3.51041 1.90662 11.943 
9.89176 6.9505 12.3402 
0.96346 3.79728 5.85023 
2.50549 7.10133 8.19878 
0.600781 2.95534 8.69172 
7.66377 7.30266 2.95717 
1.30881 7.04138 4.08645 
10.7211 11.0371 1.41329 
1.66166 9.57324 12.5389 
1.35031 5.00157 9.23273 
8.49564 3.79708 5.2896 
10.7181 5.59456 7.80672 
8.33402 11.7573 9.72885 
4.81459 9.91896 6.66167 
2.45061 0.979972 2.74332 
9.32553 6.32218 5.7483 
3.08526 9.32968 10.2788 
10.8044 0.202022 10.5756 
9.60599 5.82795 10.3636 
0.909932 12.0292 5.9232 
2.07644 1.63895 3.62867 
11.0736 4.82422 2.97018 
8.16827 4.97345 1.69152 
12.1869 10.3777 2.01129 
8.91344 4.90298 6.86569 
9.15288 10.6748 5.27063 
12.2463 11.5673 10.0231 
12.2858 0.52492 1.93849 
11.1213 3.63261 2.76334 
6.69301 4.8677 7.63097 
2.05471 11.8965 1.4553 
1.33281 11.3286 5.16498 
1.6108 7.46179 8.87967 
12.4043 7.2979 6.03408 
1.85287 2.50322 5.2843 
0.733997 4.7595 4.27969 
5.13884 8.45674 2.88719 
11.7253 12.3229 2.29379 
9.55345 0.228465 12.4878 
10.7447 10.7246 11.2703 
3.19707 1.1729 8.45855 
9.36886 5.99172 7.93613 
11.8277 2.09048 8.73402 
2.4508 2.59356 6.22343 
1.96122 4.37727 8.59524 
6.8937 10.1285 7.51795 
7.51845 3.81886 5.69274 
7.01743 11.805 5.54072 
3.03536 5.6068 7.07275 
4.47317 1.38173 0.326512 
2.57154 0.850617 5.76453 
4.91815 5.60716 10.6221 
10.1932 2.51036 12.0449 
8.54055 1.63977 1.25802 
12.2096 9.87147 0.399714 
4.31532 7.72942 3.3738 
12.2324 5.74835 11.1633 
8.0554 1.70124 9.10134 
11.4656 5.37867 6.18643 
0.537976 0.496461 5.86721 
4.1674 11.4759 12.2706 
1.98698 3.54051 12.1667 
4.88707 11.8695 4.85869 
11.1772 9.62825 8.77912 
3.02098 7.54868 11.4062 
1.63881 6.27934 11.571 
3.85634 4.62468 9.43983 
4.88135 3.89331 5.41022 
2.64907 6.63307 10.1642 
4.24565 6.67822 3.50735 
8.16935 5.67857 6.78543 
11.0309 8.43262 3.42861 
1.14206 6.64232 1.93053 
6.60156 11.3391 4.87497 
1.84261 2.92954 7.31888 
1.74997 0.961139 9.22513 
11.7621 1.34411 4.84067 
0.661539 0.980196 11.142 
3.64154 9.76637 0.811205 
3.52588 7.68585 9.85161 
10.7284 2.72432 11.1224 
8.02897 9.03576 12.3533 
11.3736 0.537301 0.613571 
4.42108 11.1852 11.2609 
10.3912 7.85242 12.0013 
3.91868 9.06328 11.4871 
10.4846 8.16364 5.19129 
2.65875 11.5682 0.673168 
2.52582 1.99056 8.0121 
4.5608 0.160561 4.48775 
1.26173 1.9414 1.5416 
1.39766 12.3086 12.3345 
2.21441 11.5574 12.3362 
6.77879 0.565115 5.75707 
8.06677 10.1935 3.73048 
8.83851 2.32946 9.65857 
5.57493 2.4891 7.21158 
2.47418 7.9957 12.5223 
12.0879 2.5976 0.431479 
11.9211 6.79541 5.21268 
1.7412 10.1996 6.44857 
0.737268 9.79275 6.22174 
7.89388 11.3499 1.02465 
6.88366 3.26967 1.19437 
3.55765 3.0651 0.103022 
3.01611 11.8284 9.10931 
4.69947 0.410843 0.836243 
4.57319 1.38475 10.8815 
2.86079 11.6591 3.16413 
11.3868 5.47345 3.74824 
2.10816 2.51407 8.80411 
5.81371 12.1122 2.95425 
12.0392 2.25419 1.51925 
1.54387 0.58689 0.0664814 
3.94564 5.95431 5.79246 
1.99754 7.28893 1.37062 
10.7331 12.2543 6.52608 
5.8852 4.67826 0.590907 
5.13706 5.78793 8.29614 
4.39509 7.36679 9.3209 
11.9678 4.58798 5.63318 
1.71128 12.1093 4.46742 
0.728703 6.82473 3.65069 
5.76775 11.9443 9.40377 
9.84027 8.71577 11.603 
5.38521 1.08119 9.12583 
4.86666 0.359935 10.5169 
3.50299 12.1139 7.13321 
3.02068 7.15374 1.79758 
9.50259 11.979 1.77362 
0.192012 8.62854 0.962711 
4.56315 10.6608 7.39389 
2.5864 0.990531 10.1802 
5.42407 3.82673 9.89805 
1.82062 4.44507 6.18267 
3.58942 8.3629 10.6799 
4.31322 3.94842 10.2402 
6.99432 12.4128 6.48863 
1.74052 11.0408 4.2115 
6.26611 9.25035 1.57906 
8.92834 7.7616 10.9393 
0.646945 7.9261 6.79843 
4.91389 9.28882 11.7786 
7.12524 6.9503 11.1015 
11.1718 11.4357 2.6323 
5.06179 2.03778 9.43025 
0.924843 3.75412 10.0458 
6.93383 0.296886 1.09449 
8.59528 6.97054 2.40277 
11.761 4.17123 0.822347 
3.28885 4.64334 2.91121 
10.4935 9.30087 3.64356 
1.91743 2.46906 12.2955 
10.4966 10.9991 4.24542 
7.00159 0.74501 11.3678 
1.37012 8.26664 1.42299 
2.1089 3.01635 0.499351 
8.24874 1.8036 10.9679 
3.62796 2.86343 9.7747 
8.67425 11.543 3.41826 
4.91582 10.3613 4.07658 
3.69202 8.66479 7.83618 
2.24808 1.43037 1.79603 
1.97311 2.05505 2.63655 
7.93097 2.80186 5.56466 
9.00121 2.72017 5.27118 
0.387207 6.53411 6.57627 
10.7238 4.54564 7.5263 
2.41474 0.629591 9.05829 
6.84011 3.70741 2.18682 
10.5446 0.47162 5.95731 
0.281601 12.5763 8.74265 
10.0849 11.5672 11.0124 
9.42124 4.34313 11.4322 
11.8269 8.92346 0.706633 
2.10053 3.49278 3.70202 
2.87965 1.98683 5.36416 
12.289 11.7978 4.35967 
11.3844 2.7254 5.4832 
2.54248 10.027 11.9653 
2.97436 1.92311 4.22884 
9.00986 10.5205 3.39176 
5.19269 4.85966 5.02786 
6.85917 3.3592 11.1442 
1.47245 12.3171 0.902335 
7.77008 10.3987 6.84061 
2.89476 5.35233 1.59572 
7.19671 6.34798 0.288104 
6.57513 10.945 1.28378 
0.231069 10.3433 5.48407 
1.97582 9.06442 1.74556 
6.93831 6.4157 10.042 
0.0665803 9.80266 7.59972 
9.03044 7.85452 6.63997 
1.22375 4.72122 10.3768 
7.63094 12.3951 9.16232 
5.33935 3.63924 0.337879 
7.82334 7.14851 9.22703 
2.96427 10.8166 11.0841 
2.84171 7.76012 5.6883 
11.1461 2.82782 8.22453 
2.85148 9.09466 2.38624 
10.1201 3.12577 3.33561 
3.65512 11.2284 6.51415 
10.6428 7.01457 11.3522 
10.3624 6.42157 1.67644 
3.04481 7.79416 7.55225 
1.34614 10.7126 2.63423 
0.763606 5.70502 3.63755 
3.69285 7.16386 2.67743 
5.47813 9.98082 1.86642 
1.69911 7.89848 0.516322 
2.57319 7.3491 2.7719 
9.86815 10.4652 6.14686 
7.59386 2.19787 4.77515 
3.25064 2.76107 10.8779 
9.84706 7.01216 2.40304 
10.9873 7.40424 10.3384 
12.4757 9.53314 1.40659 
1.06482 4.69228 3.26455 
3.97196 6.48167 3.62206 
9.91683 8.58419 3.0927 
6.58427 4.2374 8.56738 
11.9251 7.15235 0.109372 
8.0058 0.71323 10.9944 
9.65343 3.91078 8.77534 
11.7137 9.63568 7.23962 
1.00424 1.85636 3.65574 
0.744562 10.661 10.2319 
3.9143 1.53165 4.79364 
11.4817 7.88403 0.779475 
9.8751 12.4333 5.57218 
1.02939 6.50504 4.81842 
10.688 5.80947 8.92271 
2.72474 1.90494 11.7657 
2.02133 12.2327 9.32972 
7.92151 6.51284 1.0893 
4.41118 6.066 0.931769 
3.54079 3.65707 9.09475 
1.86681 10.6024 3.72216 
7.65496 7.78185 5.12122 
10.5019 1.0136 7.96268 
7.61821 8.6516 11.462 
4.56782 7.07933 0.704243 
4.49835 1.55591 11.9217 
9.91664 0.960517 4.05157 
3.95646 8.00886 6.79722 
0.686805 10.6342 4.52648 
6.62931 11.7763 2.25845 
0.113979 8.9912 9.55414 
4.49826 3.69718 6.39626 
11.274 1.73208 2.99384 
1.51291 7.09804 7.80133 
3.40828 3.4671 6.34359 
7.57367 2.02353 10.1651 
8.58957 1.24316 6.31628 
1.64035 4.84734 7.16853 
4.86845 10.1384 8.29511 
6.55329 10.2445 9.32328 
4.14626 7.39042 6.11034 
8.3219 2.34632 11.9129 
8.18706 10.2515 5.20038 
2.3758 7.05098 0.405459 
9.98841 4.57636 10.3267 
12.2667 4.75543 0.13263 
11.7384 8.80799 9.21454 
6.50929 11.1052 10.1081 
7.58501 8.09791 4.01133 
3.55315 10.9568 7.55859 
11.1372 10.3393 2.18003 
12.5307 7.58584 0.952927 
9.57871 6.95263 6.61566 
11.619 1.22565 1.46793 
10.1051 0.929412 10.5591 
4.06618 7.83687 11.5113 
8.76328 5.35318 5.86191 
5.08094 8.17751 0.321949 
8.44808 3.32809 6.28182 
12.0704 6.66758 2.54765 
1.39604 0.977905 3.14586 
5.05669 8.82915 1.86086 
8.68428 12.5198 5.37261 
2.52109 3.70239 1.23002 
9.12247 6.62868 4.73221 
10.9258 8.57611 1.43388 
10.1331 3.53443 6.97705 
5.31663 6.70005 3.56993 
10.2105 9.45954 12.5078 
0.66305 1.5688 8.44139 
7.59483 3.26485 2.87965 
1.70684 11.8301 11.4076 
0.285223 3.17363 0.566846 
4.74116 8.84257 4.86326 
6.31453 12.2264 7.30925 
4.17936 5.38751 4.92472 
10.8627 2.0447 9.1788 
5.32434 0.358917 2.63743 
2.98828 4.14685 8.30842 
11.8336 12.2454 8.00289 
7.29805 11.9497 10.1073 
3.33114 9.92032 11.1435 
2.22342 10.8665 3.21085 
8.50957 9.9544 12.5761 
11.6921 9.33 2.10616 
0.607919 0.383362 1.43258 
11.7297 1.70655 9.8008 
1.34572 6.79569 4.44878 
4.18376 4.8723 10.8533 
7.09291 0.353936 7.42098 
6.07008 12.2306 4.0568 
6.3419 5.10536 6.56743 
9.21321 0.803405 7.10043 
2.30716 9.45532 9.55248 
2.49114 12.527 7.31951 
0.67696 3.47524 11.6927 
6.54641 10.8726 5.55899 
3.91125 5.81497 7.76579 
2.77395 3.80949 0.177755 
5.58595 2.35268 2.64825 
7.68492 7.55979 4.02375 
11.5586 4.00779 4.76183 
11.5694 9.74085 6.17721 
3.54797 2.74087 2.8701 
7.06127 4.70583 3.7406 
9.4173 3.25647 1.58137 
8.93796 11.5925 0.939706 
5.56258 4.52149 5.9886 
7.18133 11.8261 7.97369 
8.20932 4.36847 6.29425 
9.1051 7.3856 5.61397 
8.69085 8.29407 3.09735 
6.16098 7.30928 5.43042 
4.48963 11.9287 6.59647 
0.42944 7.97977 1.81626 
5.96531 10.1049 0.932064 
8.88686 8.76014 2.71665 
6.07911 11.129 3.26415 
5.81272 7.54863 4.12916 
0.6167 5.11417 7.46384 
4.64511 4.41176 2.0974 
10.417 8.25081 9.9029 
9.28508 11.6857 5.15342 
6.1042 9.83371 5.6379 
6.46669 5.59208 9.49464 
4.38449 11.4024 4.03269 
11.4568 6.21214 1.74131 
10.2789 12.11 12.4281 
3.48316 11.0698 4.95278 
11.874 5.37964 1.02711 
1.43531 9.60214 8.91938 
9.96191 4.56976 5.05525 
12.5736 10.6067 1.08112 
6.952 3.79333 7.64485 
7.03338 10.3779 3.78224 
5.40547 9.18367 6.19629 
4.23007 9.57723 7.53212 
6.29881 9.20711 10.5497 
5.47564 2.93603 4.33735 
12.3436 4.64442 11.801 
10.7291 1.73635 5.85713 
9.12753 8.9108 0.802216 
3.88695 0.44229 5.23863 
6.38222 2.35438 7.86518 
3.58553 1.04626 10.595 
2.95856 4.92416 12.4929 
0.718657 5.9125 11.0038 
8.17456 6.03467 2.02013 
8.90335 4.18924 12.4283 
1.13116 8.88306 0.531888 
1.2298 7.56911 11.7366 
12.4841 2.57476 4.80587 
3.10865 5.80124 5.1274 
9.33179 0.656201 5.72495 
6.02388 5.1889 8.48811 
1.70037 11.0868 7.08142 
4.25864 6.26939 2.40682 
7.3734 5.07882 6.20998 
10.7345 8.97668 2.4683 
0.879532 9.38765 11.8621 
3.73979 5.91432 10.8413 
6.5914 5.07884 1.48269 
2.21322 7.08639 12.0376 
6.25618 4.06117 1.37918 
5.74704 8.76584 5.33093 
8.30692 11.7401 7.95638 
4.48364 2.36664 2.61851 
8.9923 9.55034 10.1227 
4.19946 10.7583 1.28427 
2.07353 11.4538 8.66392 
11.0135 11.8686 8.66403 
9.49757 3.20651 6.13384 
1.75559 6.29507 8.43246 
1.54588 0.927599 8.50163 
10.1756 11.0412 5.26265 
4.24651 3.96633 7.43227 
9.18012 9.73201 5.73356 
10.3154 9.7208 11.4473 
5.32076 7.35001 9.92225 
4.58784 8.8684 6.78802 
0.859066 8.80742 10.95 
10.8582 1.00446 9.79616 
12.4165 6.501 9.1481 
2.96218 11.5806 2.78486 
4.70005 7.30381 4.27982 
2.98175 8.8022 3.45251 
11.2155 12.1619 0.897341 
0.173273 12.361 2.17659 
6.27194 7.15762 10.4917 
10.631 5.40129 10.0258 
10.1141 6.09335 11.7546 
5.74856 2.87008 9.45038 
11.2857 1.74129 7.9158 
5.7764 6.33752 9.88373 
5.02049 12.4925 1.75652 
12.0104 9.11265 3.71989 
3.49036 9.66437 12.302 
0.555266 2.79133 9.80673 
3.97932 5.09328 1.20738 
12.2703 10.7561 4.71357 
2.46014 5.6117 11.852 
5.00149 1.47152 2.41269 
10.1081 8.12841 2.12476 
2.49538 8.13042 1.86503 
11.8672 6.97507 9.77925 
11.3003 12.394 12.4775 
8.15744 8.28879 3.34013 
8.65743 10.601 6.22565 
9.02752 12.3336 2.73792 
8.28791 9.70605 4.64831 
12.1488 7.40779 8.7966 
5.2279 0.714885 7.05298 
2.50022 7.10151 4.84882 
10.5028 1.86231 3.76509 
9.0003 6.82869 10.333 
9.91895 3.90556 4.15743 
12.2645 7.76197 4.83252 
2.39111 9.74841 8.41974 
12.0682 4.48876 2.75984 
6.137 3.15278 10.3888 
8.4962 3.44377 9.71623 
4.85239 4.77072 9.81056 
1.78636 1.45843 9.67934 
9.19602 11.4081 9.12291 
5.92459 3.85951 11.2882 
7.42802 11.9721 4.48945 
0.199349 10.4781 8.47748 
9.77291 12.5581 10.6649 
6.41127 3.74902 0.349715 
8.21876 6.623 4.18356 
11.2523 0.946723 5.32351 
7.82087 5.97455 5.79606 
7.53755 7.21171 1.82816 
2.72773 10.3797 10.0904 
6.29883 1.86221 3.32166 
12.0016 0.941818 12.5067 
5.52539 8.474 10.1786 
5.12003 0.699781 11.5593 
7.68184 4.28822 2.40275 
7.71855 4.75341 7.16854 
7.78008 10.695 0.160996 
9.16316 4.84154 0.606021 
3.78198 11.536 0.680465 
8.59873 4.46692 7.78069 
3.19872 6.67244 3.49033 
10.055 0.157804 2.07807 
7.22836 6.57373 3.70786 
2.93869 6.3646 12.4083 
5.72317 0.158357 0.977262 
10.8703 12.5885 2.86597 
4.08925 11.9299 9.19956 
8.16661 10.8118 2.75974 
3.64053 2.56961 4.81709 
6.46506 5.21913 12.2651 
0.907819 2.00328 5.93396 
5.94714 8.61294 4.31768 
6.00815 0.923139 5.04189 
7.80454 2.81538 11.0717 
1.7356 9.11822 5.00963 
4.27175 9.81038 4.83556 
5.27671 12.1385 10.9488 
10.6685 7.48577 1.48985 
9.84813 0.993442 0.457773 
7.80616 7.78883 10.8623 
9.09594 1.5723 8.97015 
2.60273 6.63175 7.15115 
6.32595 5.71835 2.35077 
12.5855 2.30575 6.9379 
8.59715 7.32737 3.4884 
7.50243 5.9927 10.8771 
3.38776 0.618916 6.69454 
3.40719 0.962294 9.52791 
4.29064 1.45164 3.18705 
1.91838 1.66437 5.98546 
3.14883 10.7044 1.08031 
11.6563 11.6643 6.37205 
11.5541 5.2061 7.24278 
6.85064 11.8959 3.41285 
9.36578 0.928174 9.74575 
2.158 8.38206 2.87841 
11.2545 5.06079 0.219844 
3.68941 12.4614 6.09636 
0.73514 9.27254 5.32989 
0.521661 7.43146 5.16219 
12.4431 11.9549 7.17033 
5.01256 11.9362 8.63257 
1.53682 6.86857 2.98905 
8.37069 8.88808 8.07882 
1.75762 6.13269 9.46397 
10.5168 10.795 10.2173 
8.20054 3.08598 4.52952 
0.35464 3.12564 3.0688 
0.341959 5.60853 6.04518 
2.65051 3.10958 8.02756 
7.14759 9.32946 9.46823 
8.67339 12.2786 8.79854 
2.01201 10.7819 1.05043 
6.69726 7.44838 2.4706 
4.1236 7.69439 8.06798 
12.4373 12.6027 11.9909 
6.26214 0.488838 6.71357 
3.22621 1.91868 10.1146 
1.79365 8.23941 9.6887 
5.67527 2.63449 12.5759 
3.08748 8.94054 1.34542 
2.63438 0.975062 11.2449 
12.3727 4.77815 7.77733 
6.77142 6.0069 6.06444 
1.82775 9.18486 11.508 
9.36994 11.1169 6.8981 
8.37221 5.74807 4.89865 
2.36396 3.57625 6.62888 
3.92439 8.03763 6.98893 
9.01325 12.1725 7.24406 
12.5452 5.80222 0.231496 
9.20631 6.3269 1.77035 
5.41587 6.56559 10.8288 
2.6283 12.419 6.28835 
6.81475 11.6398 9.15995 
11.1339 9.60233 1.2513 
11.492 0.66651 7.78479 
8.58867 9.23325 3.80654 
2.83914 2.24739 0.145559 
10.0218 4.07053 12.284 
12.4185 0.524812 6.62834 
4.45358 3.28848 4.53422 
12.0314 11.9904 9.06153 
8.18671 4.02371 3.32544 
11.2569 3.18768 0.767429 
2.14914 3.98545 7.59834 
6.87971 5.25105 10.4607 
11.7353 4.44271 3.79468 
9.10041 1.13485 4.77557 
3.99353 3.77594 2.71272 
0.426105 6.27422 2.66808 
3.15619 1.70199 1.24627 
11.9319 9.41722 10.1015 
11.9451 1.82588 12.2568 
4.81818 11.8028 0.997809 
10.2016 4.89342 0.383566 
0.561729 0.165165 0.339667 
5.76078 8.70205 11.291 
8.48778 7.04407 8.32353 
7.95391 4.80408 5.34076 
5.08142 2.20746 0.682242 
0.522783 4.8552 8.54236 
10.2138 2.05264 0.38064 
3.56776 10.9767 9.45853 
12.472 4.65948 1.7924 
3.97421 2.18307 3.85063 
12.2119 12.4654 0.312996 
11.985 3.51777 3.3142 
4.32337 0.575726 2.11428 
1.85912 9.43199 2.77771 
10.3273 3.14867 0.22676 
9.92256 4.54384 6.69951 
5.00324 5.87008 5.39734 
7.88315 6.82705 10.3208 
7.94818 5.0575 10.5705 
6.17547 4.72934 4.62464 
5.64628 5.85364 11.6167 
4.73558 2.99307 9.84677 
2.96789 3.12464 5.47017 
0.976111 11.1257 11.1418 
7.8626 0.798653 0.261116 
9.49374 1.76809 5.60596 
7.97137 11.1158 11.7612 
9.23344 11.9018 11.4551 
2.09448 1.55437 4.77893 
12.555 10.8912 7.45964 
10.2513 11.2557 9.22743 
4.7508 0.159507 9.20675 
1.86007 4.16533 9.67426 
9.6058 9.20022 4.25107 
5.95042 10.3135 3.92645 
7.69539 10.8852 7.78822 
9.03051 0.672076 10.7114 
7.04505 1.17179 12.3498 
1.54443 3.40444 4.66448 
1.9202 8.04646 7.97891 
3.9115 2.20701 0.644816 
12.4911 7.26735 3.39359 
8.94911 10.8501 0.102364 
4.79953 2.64024 6.45894 
2.76768 10.7367 4.1664 
0.430208 0.910458 3.64872 
5.55064 7.37541 0.937523 
8.50551 8.31152 5.55027 
1.98022 4.5549 0.201715 
3.55131 9.08486 6.83458 
10.416 2.81296 4.30314 
3.31148 8.36787 12.0193 
7.64444 2.57665 0.937371 
0.815838 9.71326 2.59522 
9.12124 6.58066 7.56708 
4.70286 10.6554 2.22299 
8.90984 8.8955 6.3668 
11.3756 7.98909 12.3549 
4.30385 11.2099 10.2097 
0.440908 4.74796 5.4252 
9.00207 7.13072 9.2718 
6.29399 9.18087 0.486791 
0.547982 11.8407 10.4349 
9.3715 7.55412 0.390363 
9.25293 8.87914 8.62266 
2.65676 12.3702 2.17209 
4.518 3.11107 3.46094 
6.86893 10.8107 8.44689 
0.14879 1.74846 11.6791 
5.72285 1.82182 4.30209 
2.68911 4.61246 6.83049 
3.58486 3.7271 0.94095 
11.3603 3.62665 11.0575 
3.51669 3.93584 10.9425 
4.66445 10.9047 6.32309 
2.32859 12.5121 0.210562 
9.33407 3.17958 12.3622 
4.94633 2.64566 1.66385 
5.37329 10.9342 1.33287 
0.228014 12.0186 3.45479 
11.4882 3.82039 9.02794 
1.49322 0.25577 7.3706 
11.5317 6.09723 0.143656 
4.43467 0.786951 6.28114 
7.34176 5.37952 2.18732 
1.56485 10.3611 11.6597 
11.291 3.03102 1.83883 
2.32189 9.836 5.56989 
11.6898 7.19566 11.6586 
0.344562 1.31821 7.36197 
10.2115 10.0318 1.6922 
5.52895 9.62121 4.67507 
7.5736 9.6563 4.51795 
9.60771 3.86148 0.584082 
11.5483 0.854521 10.6856 
12.1919 6.9012 7.07315 
6.26463 4.28747 10.3834 
2.16144 8.15262 11.4957 
4.52899 5.81726 11.5814 
2.33972 10.825 5.13933 
11.8367 8.65011 6.24341 
3.94294 8.9201 2.05863 
5.66437 5.69688 4.51864 
7.23141 8.28024 1.89969 
10.6903 0.115701 4.95805 
1.02889 1.93992 4.76347 
10.9346 5.87725 2.62139 
2.21101 4.46415 3.17168 
12.4759 5.87047 7.29331 
3.55104 6.99938 10.6819 
3.28003 10.661 3.22848 
7.54532 12.5178 1.8569 
4.82649 0.994648 5.21905 
2.68207 0.670023 12.3087 
4.08753 1.0635 7.69378 
0.93654 10.9039 6.086 
9.17069 11.2797 2.51236 
12.2243 12.2827 1.34334 
10.7633 2.64806 10.0339 
5.38311 11.4496 7.03331 
11.9822 0.321245 8.70047 
0.56555 9.99847 9.41547 
9.33735 3.72805 10.5594 
1.92325 9.13504 3.82634 
0.741229 0.598742 8.08239 
4.45746 11.7181 7.6433 
10.897 9.2492 9.79078 
0.849864 1.98557 10.8841 
8.55299 6.63486 6.40686 
2.682 6.47285 9.05956 
5.98922 10.1395 8.2564 
7.52405 2.68063 3.77923 
5.02611 11.2678 3.16876 
4.30832 10.158 9.22378 
3.35449 11.5609 3.87431 
4.8463 10.2945 10.1529 
1.69593 12.1078 6.66556 
6.16315 2.7142 5.12475 
6.06893 10.812 2.23229 
5.12258 4.9082 11.6924 
2.22746 3.13381 2.55505 
0.182016 2.50349 2.13619 
5.55248 3.47367 6.20865 
10.065 7.83737 10.9433 
9.31747 11.3614 7.9617 
0.997951 6.9463 10.8208 
8.57222 3.52527 2.40564 
9.89118 7.44309 7.55778 
6.17178 2.2981 7.99782 
11.0108 9.05206 7.90122 
0.8669 4.87957 11.393 
11.5504 4.06811 1.8519 
11.8373 3.5345 12.3089 
8.91575 4.73522 4.88628 
4.49202 3.96106 11.4091 
9.13786 12.5139 9.7633 
10.1454 9.27376 0.928193 
11.4849 4.35657 11.9544 
2.58018 9.88052 1.41087 
5.12111 3.33368 10.8131 
9.8478 1.73255 7.32263 
3.15802 10.0295 4.92441 
3.47013 3.6972 4.72953 
5.72857 0.112061 8.72307 
0.896152 6.00409 0.101173 
9.23255 4.33366 5.8979 
10.8518 10.1767 7.78521 
9.63759 3.29273 9.64799 
6.17089 8.35511 2.22133 
2.88696 1.64128 6.4448 
7.40721 9.03607 7.58915 
1.60242 10.1875 9.86477 
10.6067 6.64426 8.05745 
9.76013 1.98582 4.57964 
8.1046 0.784724 7.24264 
5.29327 9.47695 7.56122 
7.9545 9.88059 8.07372 
9.54251 3.60773 5.12003 
6.56778 9.40598 3.82286 
1.35245 12.0101 3.44452 
3.95277 2.93993 7.05152 
9.01343 7.94174 7.93923 
12.5752 11.0206 3.68434 
4.12838 7.86749 5.09199 
7.23805 2.09052 8.47112 
2.12427 5.52684 6.45776 
1.19643 4.23498 12.2126 
3.30757 5.17115 8.58014 
1.95783 0.219978 3.77316 
2.78719 4.55834 9.32364 
8.13552 9.50632 11.0772 
10.274 4.16961 3.1979 
8.12611 0.10576 10.0833 
11.2058 11.9216 4.46424 
1.08789 0.794261 9.13047 
10.6158 3.62789 4.95105 
11.3431 9.90055 11.768 
5.63695 0.248489 9.81843 
6.36646 6.74072 0.805329 
0.759023 3.14304 7.62061 
0.196213 12.4548 5.08498 
5.50051 0.485334 4.11384 
6.59861 4.46953 5.70738 
6.75026 1.344 7.78637 
5.91205 10.6888 12.096 
6.12027 6.30596 12.4926 
11.7028 2.02062 6.27458 
0.489217 8.39428 11.9368 
9.86703 7.39954 4.76542 
12.0483 10.0782 3.86345 
8.22943 6.84239 5.30691 
1.87592 11.6941 2.56128 
4.44822 8.34062 9.86121 
0.914687 7.29626 1.07507 
4.12954 5.59529 9.86879 
10.4714 5.91126 3.07569 
8.24237 6.18728 0.117277 
8.59182 3.50598 0.687247 
6.38916 12.2754 0.418053 
10.9459 7.16949 5.01312 
8.97259 1.26068 3.69003 
7.02778 10.9529 2.8599 
8.83 4.17064 1.49083 
4.55158 1.59621 1.42088 
8.42781 12.0756 11.826 
10.5374 4.27605 11.3117 
9.70844 4.94245 2.8013 
2.24925 10.5321 9.13325 
1.11532 1.12346 6.58512 
7.04836 0.25778 10.4314 
5.74299 7.5582 3.02385 
12.5809 2.1424 10.2992 
0.933238 2.43721 11.8661 
10.298 3.21025 2.23701 
1.13256 4.85056 5.11613 
11.0517 2.00597 1.96193 
0.949651 1.83498 2.55923 
0.261918 5.19557 2.74942 
5.23102 9.43806 10.6631 
3.17834 3.31412 2.01263 
7.33693 2.06767 2.89196 
9.77191 6.30795 9.4051 
9.92416 3.07524 8.14217 
11.5021 2.92371 4.45586 
9.74091 5.21515 7.50937 
3.89862 12.4204 3.58309 
5.93941 6.28595 8.81673 
11.583 1.88024 4.06759 
6.98107 7.89308 6.03706 
5.82182 8.0651 9.21133 
1.72577 4.40011 4.11457 
9.827 0.175165 7.74187 
0.923451 11.0494 3.53901 
12.2226 9.79135 9.08768 
12.4437 4.57858 4.63836 
6.49654 7.63491 1.42299 
8.15614 11.7072 0.0840747 
10.9648 8.95547 6.82063 
4.28753 11.6347 1.93128 
3.66023 6.05943 4.24921 
7.18559 6.9203 5.61395 
11.3707 10.2495 9.66172 
5.8391 9.74001 11.4947 
6.80411 9.16874 2.54081 
11.3409 3.73647 5.79524 
10.7317 8.05918 6.26982 
0.575471 3.83821 4.83425 
4.72413 2.23535 4.64092 
10.9339 6.41172 9.83076 
0.798164 0.0927296 2.93953 
9.26018 4.92768 8.50865 
4.52053 4.93317 5.88296 
1.72992 0.597335 11.7024 
7.82979 2.27732 10.0807 
6.62961 1.76944 4.91031 
0.0928475 6.93363 1.79688 
5.77222 8.38573 1.19311 
2.05625 8.9108 10.4933 
4.21748 11.0653 8.4832 
7.76595 5.6389 3.98798 
8.13736 4.55118 0.679282 
5.29053 5.51671 6.41872 
7.20786 0.846106 4.76631 
3.76382 4.44096 6.6257 
8.4008 6.31036 9.59439 
2.63649 10.5535 7.07814 
3.19172 2.63135 8.81861 
12.4281 3.53602 4.27017 
4.85101 12.1028 9.94965 
4.32626 0.133347 7.16461 
5.29154 12.4214 7.70232 
8.60885 10.2979 11.5826 
6.29106 7.29837 8.32882 
10.8177 0.85037 11.457 
2.5035 12.4357 11.7699 
5.46206 1.71028 11.3917 
0.0914566 8.90693 2.24588 
0.88372 5.64472 9.96134 
8.87723 2.31739 6.30563 
5.23848 11.498 11.8942 
3.9826 1.72375 6.81292 
4.89817 11.1088 9.31795 
10.5725 4.33833 2.16058 
3.7475 5.76998 3.20259 
5.08372 4.6532 8.74015 
1.30901 3.79377 6.89473 
1.41933 5.80739 2.72156 
4.29746 12.0692 8.23226 
5.47744 5.45315 12.6089 
8.51401 10.668 9.53398 
6.61119 4.72539 2.6316 
2.86319 2.94008 11.9758 
6.84369 10.1098 1.93483 
10.0333 8.47765 8.01066 
2.52984 9.02261 12.2998 
4.36137 2.78212 8.8527 
3.67595 6.19266 8.72714 
6.78136 1.60223 8.41624 
3.7945 0.766443 4.03928 
6.38401 6.085 10.89 
9.45242 9.93571 0.407958 
7.48673 5.42654 12.5397 
8.63504 2.51761 1.40986 
10.4641 10.2887 0.676667 
2.56445 9.47556 6.61195 
12.4758 5.21793 3.77858 
6.98644 1.05016 3.09956 
11.1286 8.0322 11.2283 
9.26312 9.84506 6.82108 
0.240262 2.01572 2.15229 
1.38987 2.77273 3.24457 
7.07839 0.85146 2.06439 
9.45007 5.62842 4.9471 
0.488835 4.16179 2.49485 
8.22141 12.436 1.00718 
2.58965 6.17836 4.26958 
2.80304 8.35193 6.6411 
9.17908 4.32607 9.6517 
4.4909 3.12175 0.764305 
10.334 7.2371 9.39571 
2.58916 2.58104 3.41575 
5.3258 7.16723 8.8146 
8.18841 1.90371 3.46764 
1.20202 2.83971 2.20016 
8.68757 0.127332 6.43703 
1.1982 6.38758 5.87714 
3.99209 10.5612 0.184938 
2.32286 6.19912 3.17798 
1.35507 1.00617 4.24972 
6.66161 2.22274 1.24555 
12.4595 5.82197 1.86754 
12.2935 3.6555 11.5597 
10.3867 11.9019 10.0509 
5.29196 4.00171 4.30074 
8.81244 3.91249 4.23372 
5.46068 6.9417 6.84926 
6.50564 2.5986 4.08834 
7.99301 1.26034 2.57226 
12.1183 1.56946 2.35048 
11.5111 5.10268 4.73535 
6.07535 2.98752 1.95352 
2.16063 1.94999 0.87896 
0.410911 0.749834 4.74195 
6.02588 4.16145 6.94195 
1.55679 7.273 5.40345 
11.5096 0.279234 3.75105 
2.46368 5.33023 2.56269 
10.8133 12.5111 7.78713 