  LAMMPS description
 
      88   atoms
      30   bonds
      60   angles
      65   dihedrals
 
      11   atom types
      13   bond types
      25   angle types
      25   dihedral types
 
       0  100.000000     xlo xhi
       0  100.000000     ylo yhi
       0  100.000000     zlo zhi
  0.0000000      0.0000000      0.0000000     xy xz yz

  Masses

       1   12.010000
       2   12.010000
       3   12.010000
       4   12.010000
       5   16.000000
       6   16.000000
       7   12.010000
       8   12.010000
       9   12.010000
      10   1.0100000
      11   1.0100000

   Atoms

       1       1       1    0.000000   50.993000   53.067000   57.215000
       2       1       1    0.000000   50.665218   52.435319   55.961404
       3       1       1    0.000000   49.622597   51.345952   55.927064
       4       1       1    0.000000   48.964255   50.904738   57.148642
       5       1       1    0.000000   49.303275   51.558289   58.445580
       6       1       1    0.000000   50.288673   52.629965   58.475139
       7       1       1    0.000000   50.049565   53.846319   59.320040
       8       1       1    0.000000   50.576178   55.038833   58.581309
       9       1       1    0.000000   51.143771   54.566657   57.275388
      10       1       1    0.000000   50.991462   55.380886   56.077913
      11       1       1    0.000000   50.652477   54.727417   54.781148
      12       1       1    0.000000   50.477789   53.282872   54.727791
      13       1       1    0.000000   49.358495   52.691372   53.922905
      14       1       1    0.000000   48.831824   51.498733   54.661408
      15       1       1    0.000000   47.401500   51.206885   54.652986
      16       1       1    0.000000   46.721428   50.759127   55.913052
      17       1       1    0.000000   47.492260   50.609493   57.143882
      18       1       1    0.000000   46.922181   51.085630   58.448716
      19       1       1    0.000000   48.044105   51.673352   59.255041
      20       1       1    0.000000   47.809760   52.857242   60.076622
      21       1       1    0.000000   48.828530   53.957958   60.112309
      22       1       1    0.000000   48.096676   55.266308   60.181159
      23       1       1    0.000000   48.609885   56.428305   59.461445
      24       1       1    0.000000   49.869060   56.313938   58.653047
      25       1       1    0.000000   49.705586   57.149760   57.417972
      26       1       1    0.000000   50.259720   56.689938   56.147930
      27       1       1    0.000000   49.464470   56.841888   54.883486
      28       1       1    0.000000   49.707879   55.626089   54.036782
      29       1       1    0.000000   48.617261   55.051660   53.254414
      30       1       1    0.000000   48.442049   53.562914   53.193804
      31       1       1    0.000000   46.970604   53.268053   53.190119
      32       1       1    0.000000   46.457389   52.106045   53.909817
      33       1       1    0.000000   45.194652   52.218153   54.713284
      34       1       1    0.000000   45.357986   51.386060   55.952133
      35       1       1    0.000000   44.803833   51.849611   57.221059
      36       1       1    0.000000   45.597158   51.698210   58.486374
      37       1       1    0.000000   45.355926   52.913954   59.333182
      38       1       1    0.000000   46.446864   53.485232   60.117802
      39       1       1    0.000000   46.624434   54.974528   60.183137
      40       1       1    0.000000   45.705644   55.851806   59.463207
      41       1       1    0.000000   46.233319   57.046560   58.723216
      42       1       1    0.000000   47.665414   57.331504   58.723306
      43       1       1    0.000000   48.342390   57.777065   57.459585
      44       1       1    0.000000   47.568776   57.924286   56.229954
      45       1       1    0.000000   48.137174   57.449322   54.924331
      46       1       1    0.000000   47.016682   56.859941   54.117828
      47       1       1    0.000000   47.253513   55.677899   53.293915
      48       1       1    0.000000   46.235635   54.575130   53.253453
      49       1       1    0.000000   45.008353   54.685025   54.036897
      50       1       1    0.000000   44.480679   53.490271   54.776888
      51       1       1    0.000000   43.911490   53.966846   56.081365
      52       1       1    0.000000   44.071241   53.158131   57.286609
      53       1       1    0.000000   44.412422   53.815876   58.591864
      54       1       1    0.000000   44.584575   55.264448   58.656376
      55       1       1    0.000000   44.419562   56.095902   57.417600
      56       1       1    0.000000   44.087652   55.456028   56.147810
      57       1       1    0.000000   44.765238   55.899895   54.884099
      58       1       1    0.000000   45.755693   56.972057   54.924390
      59       1       1    0.000000   46.096875   57.629804   56.229644
      60       1       1    0.000000   45.438324   57.197498   57.459107
      61       1       2   -0.030000   52.059618   52.184318   56.552006
      62       1       3    0.000000   52.248928   50.826811   57.185542
      63       1       4   -0.115000   52.347147   50.711779   58.577367
      64       1       4   -0.115000   52.521958   49.453196   59.165056
      65       1       4   -0.115000   52.599901   48.309857   58.360912
      66       1       4   -0.115000   52.503813   48.425073   56.968980
      67       1       5   -0.500000   54.176958   52.885209   53.256899
      68       1       6   -0.170000   56.182946   53.932561   53.086676
      69       1       4   -0.115000   52.328972   49.683650   56.381191
      70       1       7   -0.120000   53.180842   52.964758   55.865131
      71       1       7   -0.120000   54.503355   52.197378   55.878296
      72       1       7   -0.120000   55.616818   52.973899   55.174495
      73       1       8    0.700000   55.247302   53.253347   53.737431
      74       1       9   -0.180000   55.922043   54.245743   51.736858
      75       1      10    0.115000   52.288273   51.593687   59.198214
      76       1      10    0.115000   52.597686   49.364219   60.238863
      77       1      10    0.115000   52.735580   47.339025   58.814539
      78       1      10    0.115000   52.565613   47.542700   56.349101
      79       1      10    0.115000   52.256088   49.772137   55.307286
      80       1      11    0.060000   52.895641   53.181312   54.835667
      81       1      11    0.060000   53.312880   53.926296   56.361430
      82       1      11    0.060000   54.369980   51.231817   55.390542
      83       1      11    0.060000   54.797020   51.991730   56.907686
      84       1      11    0.060000   55.799267   53.920070   55.684116
      85       1      11    0.060000   56.548273   52.408207   55.199298
      86       1      11    0.060000   55.778691   53.333644   51.157613
      87       1      11    0.060000   55.021893   54.855095   51.656839
      88       1      11    0.060000   56.757216   54.801186   51.310069

   Bonds

       1       1      64      63
       2       1      65      64
       3       1      66      65
       4       1      69      66
       5       2      63      62
       6       2      69      62
       7       3      62      61
       8       4      75      63
       9       4      76      64
      10       4      77      65
      11       4      78      66
      12       4      79      69
      13       5      70      61
      14       6      71      70
      15       6      72      71
      16       7      61       1
      17       7      61       2
      18       8      73      72
      19       9      74      68
      20      10      80      70
      21      10      81      70
      22      10      82      71
      23      10      83      71
      24      10      84      72
      25      10      85      72
      26      11      86      74
      27      11      87      74
      28      11      88      74
      29      12      73      67
      30      13      73      68

   Angles

       1       1      63      64      65
       2       1      64      65      66
       3       1      65      66      69
       4       2      63      62      69
       5       3      62      63      64
       6       3      62      69      66
       7       4      61      62      63
       8       4      61      62      69
       9       5      64      63      75
      10       5      63      64      76
      11       5      65      64      76
      12       5      64      65      77
      13       5      66      65      77
      14       5      65      66      78
      15       5      69      66      78
      16       5      66      69      79
      17       6      62      63      75
      18       6      62      69      79
      19       7      61      70      71
      20       8      70      71      72
      21       9      62      61      70
      22      10       1      61      70
      23      10       2      61      70
      24      11       1      61       2
      25      12      71      72      73
      26      13      61      70      80
      27      13      61      70      81
      28      14      71      70      80
      29      14      71      70      81
      30      14      70      71      82
      31      14      70      71      83
      32      14      72      71      82
      33      14      72      71      83
      34      14      71      72      84
      35      14      71      72      85
      36      15      73      72      84
      37      15      73      72      85
      38      16      68      74      86
      39      16      68      74      87
      40      16      68      74      88
      41      17      80      70      81
      42      17      82      71      83
      43      17      84      72      85
      44      18      86      74      87
      45      18      86      74      88
      46      18      87      74      88
      47      19       1      61      70
      48      19       2      61      70
      49      20       1      61      62
      50      20       2      61      62
      51      21      68      73      72
      52      22      67      73      72
      53      23      67      73      68
      54      24      73      68      74
      55      25       2       1      61
      56      25       6       1      61
      57      25       9       1      61
      58      25       1       2      61
      59      25       3       2      61
      60      25      12       2      61

   Dihedrals

       1       1      75      63      64      76
       2       1      76      64      65      77
       3       1      77      65      66      78
       4       1      78      66      69      79
       1       2      75      63      64      65
       2       2      63      64      65      77
       3       2      76      64      65      66
       4       2      64      65      66      78
       5       2      77      65      66      69
       6       2      65      66      69      79
       1       3      62      63      64      76
       2       3      78      66      69      62
       1       4      61      62      63      75
       2       4      61      62      69      79
       1       5      61      70      71      72
       1       6      61      70      71      72
       1       7      61      70      71      72
       1       8      80      70      71      72
       2       8      81      70      71      72
       3       8      70      71      72      84
       4       8      70      71      72      85
       1       9      61      70      71      82
       2       9      61      70      71      83
       1      10      80      70      71      82
       2      10      80      70      71      83
       3      10      81      70      71      82
       4      10      81      70      71      83
       5      10      82      71      72      84
       6      10      82      71      72      85
       7      10      83      71      72      84
       8      10      83      71      72      85
       1      11      71      72      73      67
       1      12      71      72      73      67
       1      13      71      72      73      67
       1      14      71      72      73      68
       1      15      84      72      73      68
       2      15      85      72      73      68
       1      16      74      68      73      72
       1      17      74      68      73      72
       1      18      74      68      73      67
       1      19      73      68      74      86
       2      19      73      68      74      87
       3      19      73      68      74      88
       1      20       1      61      70      71
       2      20       2      61      70      71
       1      21       1      61      70      71
       2      21       2      61      70      71
       1      22       1      61      70      71
       2      22       2      61      70      71
       1      23       1      61      70      80
       2      23       1      61      70      81
       3      23       2      61      70      80
       4      23       2      61      70      81
       1      24       2       1      61      62
       2      24       6       1      61      62
       3      24       9       1      61      62
       4      24       1       2      61      62
       5      24       3       2      61      62
       6      24      12       2      61      62
       1      25       2       1      61      70
       2      25       6       1      61      70
       3      25       9       1      61      70
       4      25       1       2      61      70
       5      25       3       2      61      70
       6      25      12       2      61      70

