********************************************************************************
*                       GENERAL UTILITY LATTICE PROGRAM                        *
*                                 Julian Gale                                  *
*                      Nanochemistry Research Institute                        *
*                           Department of Chemistry                            *
*                    Curtin University, Western Australia                      *
********************************************************************************
* Version = 4.1.0 * Last modified =  21st June 2013                            *
********************************************************************************
*  optimise     - perform optimisation run                                     *
*  phonon       - calculate phonons for final geometry                         *
*  thermal      - calculate thermal conductivity for final geometry            *
*  molecule     - molecule option activated, Coulomb subtract within molecule  *
*  compare      - compare initial and final structures                         *
********************************************************************************

  Job Started  at 13:27.43  8th July       2013                               

  Number of CPUs =     1


  Total number of configurations input =   1

********************************************************************************
*  Input for Configuration =   1                                               *
********************************************************************************

  Formula = C72O2H14                                                    

  Number of irreducible atoms/shells =      88


  Total number atoms/shells =      88

  Dimensionality = 3               :  Bulk   



  Cartesian lattice vectors (Angstroms) :

      100.000000    0.000000    0.000000
        0.000000  100.000000    0.000000
        0.000000    0.000000  100.000000

  Cell parameters (Angstroms/Degrees):

  a =     100.0000    alpha =  90.0000
  b =     100.0000    beta  =  90.0000
  c =     100.0000    gamma =  90.0000

  Initial cell volume =     1000000.000000 Angs**3

  Temperature of configuration = 0.5000E+05 K 

  Pressure of configuration =         0.000 GPa 

  Fractional coordinates of asymmetric unit :

--------------------------------------------------------------------------------
   No.  Atomic       x           y          z         Charge      Occupancy
        Label      (Frac)      (Frac)     (Frac)        (e)         (Frac)  
--------------------------------------------------------------------------------
      1 C1    c    0.509930    0.530670    0.572150     0.00000    1.000000    
      2 C1    c    0.506450 *  0.521040 *  0.559520 *   0.00000    1.000000    
      3 C1    c    0.494670 *  0.512100 *  0.561460 *   0.00000    1.000000    
      4 C1    c    0.488070 *  0.510710 *  0.573510 *   0.00000    1.000000    
      5 C1    c    0.491250 *  0.519410 *  0.584940 *   0.00000    1.000000    
      6 C1    c    0.500860 *  0.529150 *  0.583900 *   0.00000    1.000000    
      7 C1    c    0.498250 *  0.542330 *  0.589170 *   0.00000    1.000000    
      8 C1    c    0.503860 *  0.552170 *  0.580140 *   0.00000    1.000000    
      9 C1    c    0.509970 *  0.545160 *  0.569060 *   0.00000    1.000000    
     10 C1    c    0.508850 *  0.550420 *  0.556430 *   0.00000    1.000000    
     11 C1    c    0.505550 *  0.541690 *  0.544960 *   0.00000    1.000000    
     12 C1    c    0.503770 *  0.528150 *  0.546730 *   0.00000    1.000000    
     13 C1    c    0.492710 *  0.521620 *  0.540160 *   0.00000    1.000000    
     14 C1    c    0.487090 *  0.511860 *  0.549230 *   0.00000    1.000000    
     15 C1    c    0.473460 *  0.509420 *  0.549120 *   0.00000    1.000000    
     16 C1    c    0.466560 *  0.507600 *  0.561700 *   0.00000    1.000000    
     17 C1    c    0.473710 *  0.508420 *  0.573570 *   0.00000    1.000000    
     18 C1    c    0.468000 *  0.515440 *  0.584950 *   0.00000    1.000000    
     19 C1    c    0.478740 *  0.522290 *  0.591870 *   0.00000    1.000000    
     20 C1    c    0.476550 *  0.534820 *  0.597430 *   0.00000    1.000000    
     21 C1    c    0.486470 *  0.545160 *  0.596060 *   0.00000    1.000000    
     22 C1    c    0.479810 *  0.557870 *  0.594150 *   0.00000    1.000000    
     23 C1    c    0.485210 *  0.567240 *  0.585480 *   0.00000    1.000000    
     24 C1    c    0.497540 *  0.564450 *  0.578360 *   0.00000    1.000000    
     25 C1    c    0.496590 *  0.569970 *  0.565170 *   0.00000    1.000000    
     26 C1    c    0.501980 *  0.563030 *  0.554330 *   0.00000    1.000000    
     27 C1    c    0.494660 *  0.562250 *  0.541870 *   0.00000    1.000000    
     28 C1    c    0.496880 *  0.549180 *  0.536190 *   0.00000    1.000000    
     29 C1    c    0.486540 *  0.542670 *  0.529410 *   0.00000    1.000000    
     30 C1    c    0.484440 *  0.528640 *  0.531480 *   0.00000    1.000000    
     31 C1    c    0.470100 *  0.526210 *  0.531500 *   0.00000    1.000000    
     32 C1    c    0.464740 *  0.516760 *  0.540160 *   0.00000    1.000000    
     33 C1    c    0.452430 *  0.519570 *  0.547270 *   0.00000    1.000000    
     34 C1    c    0.453520 *  0.514010 *  0.560580 *   0.00000    1.000000    
     35 C1    c    0.448070 *  0.520700 *  0.571370 *   0.00000    1.000000    
     36 C1    c    0.455490 *  0.521530 *  0.583860 *   0.00000    1.000000    
     37 C1    c    0.453200 *  0.534570 *  0.589590 *   0.00000    1.000000    
     38 C1    c    0.463530 *  0.541180 *  0.596290 *   0.00000    1.000000    
     39 C1    c    0.465530 *  0.555400 *  0.594270 *   0.00000    1.000000    
     40 C1    c    0.457150 *  0.562450 *  0.585670 *   0.00000    1.000000    
     41 C1    c    0.462820 *  0.572310 *  0.576570 *   0.00000    1.000000    
     42 C1    c    0.476550 *  0.574670 *  0.576500 *   0.00000    1.000000    
     43 C1    c    0.483610 *  0.576330 *  0.563910 *   0.00000    1.000000    
     44 C1    c    0.476620 *  0.575570 *  0.551950 *   0.00000    1.000000    
     45 C1    c    0.482250 *  0.568490 *  0.540680 *   0.00000    1.000000    
     46 C1    c    0.471430 *  0.561690 *  0.533660 *   0.00000    1.000000    
     47 C1    c    0.473560 *  0.549210 *  0.528160 *   0.00000    1.000000    
     48 C1    c    0.463450 *  0.538880 *  0.529510 *   0.00000    1.000000    
     49 C1    c    0.451590 *  0.541610 *  0.536280 *   0.00000    1.000000    
     50 C1    c    0.445950 *  0.531770 *  0.545340 *   0.00000    1.000000    
     51 C1    c    0.440240 *  0.538830 *  0.556670 *   0.00000    1.000000    
     52 C1    c    0.441350 *  0.533390 *  0.569390 *   0.00000    1.000000    
     53 C1    c    0.444480 *  0.542000 *  0.580700 *   0.00000    1.000000    
     54 C1    c    0.446500 *  0.555520 *  0.578690 *   0.00000    1.000000    
     55 C1    c    0.445420 *  0.561220 *  0.565340 *   0.00000    1.000000    
     56 C1    c    0.442340 *  0.553010 *  0.554640 *   0.00000    1.000000    
     57 C1    c    0.449340 *  0.554730 *  0.542010 *   0.00000    1.000000    
     58 C1    c    0.459080 *  0.564550 *  0.540670 *   0.00000    1.000000    
     59 C1    c    0.462300 *  0.573130 *  0.552080 *   0.00000    1.000000    
     60 C1    c    0.455520 *  0.571500 *  0.564110 *   0.00000    1.000000    
     61 C7    c    0.519650 *  0.520240 *  0.566960 *  -0.03000    1.000000    
     62 C3    c    0.522020 *  0.508200 *  0.575620 *   0.00000    1.000000    
     63 C2    c    0.524960 *  0.509820 *  0.589150 *  -0.11500    1.000000    
     64 C2    c    0.527600 *  0.498750 *  0.597210 *  -0.11500    1.000000    
     65 C2    c    0.527450 *  0.486060 *  0.591720 *  -0.11500    1.000000    
     66 C2    c    0.524650 *  0.484340 *  0.578270 *  -0.11500    1.000000    
     67 O1    c    0.533060 *  0.541600 *  0.530860 *  -0.50000    1.000000    
     68 O2    c    0.554430 *  0.546430 *  0.535800 *  -0.17000    1.000000    
     69 C2    c    0.521840 *  0.495330 *  0.570270 *  -0.11500    1.000000    
     70 C5    c    0.532010 *  0.525510 *  0.559570 *  -0.12000    1.000000    
     71 C5    c    0.535750 *  0.517570 *  0.547080 *  -0.12000    1.000000    
     72 C5    c    0.547400 *  0.524250 *  0.539610 *  -0.12000    1.000000    
     73 C4    c    0.543910 *  0.538170 *  0.534990 *   0.70000    1.000000    
     74 C6    c    0.551990 *  0.560270 *  0.531980 *  -0.18000    1.000000    
     75 H1    c    0.525080 *  0.519310 *  0.592870 *   0.11500    1.000000    
     76 H1    c    0.530130 *  0.500250 *  0.607030 *   0.11500    1.000000    
     77 H1    c    0.529870 *  0.478130 *  0.597470 *   0.11500    1.000000    
     78 H1    c    0.524110 *  0.475330 *  0.574030 *   0.11500    1.000000    
     79 H1    c    0.519350 *  0.493060 *  0.560520 *   0.11500    1.000000    
     80 H2    c    0.530150 *  0.535050 *  0.556900 *   0.06000    1.000000    
     81 H2    c    0.540310 *  0.525630 *  0.566560 *   0.06000    1.000000    
     82 H2    c    0.527630 *  0.517030 *  0.540280 *   0.06000    1.000000    
     83 H2    c    0.538250 *  0.508070 *  0.549830 *   0.06000    1.000000    
     84 H2    c    0.555400 *  0.524800 *  0.545380 *   0.06000    1.000000    
     85 H2    c    0.549990 *  0.519230 *  0.531120 *   0.06000    1.000000    
     86 H2    c    0.547500 *  0.560700 *  0.523500 *   0.06000    1.000000    
     87 H2    c    0.545650 *  0.564520 *  0.539440 *   0.06000    1.000000    
     88 H2    c    0.561570 *  0.564260 *  0.531430 *   0.06000    1.000000    
--------------------------------------------------------------------------------



  Molecule list generated from bond lengths :

  Total number of molecules =     1

--------------------------------------------------------------------------------
Molecule No./:  Atoms
Periodicity  :  
--------------------------------------------------------------------------------
     1  0    : C1   c     1 C1   c     2 C1   c     3 C1   c     4 C1   c     5
             : C1   c     6 C1   c     7 C1   c     8 C1   c     9 C1   c    10
             : C1   c    11 C1   c    12 C1   c    13 C1   c    14 C1   c    15
             : C1   c    16 C1   c    17 C1   c    18 C1   c    19 C1   c    20
             : C1   c    21 C1   c    22 C1   c    23 C1   c    24 C1   c    25
             : C1   c    26 C1   c    27 C1   c    28 C1   c    29 C1   c    30
             : C1   c    31 C1   c    32 C1   c    33 C1   c    34 C1   c    35
             : C1   c    36 C1   c    37 C1   c    38 C1   c    39 C1   c    40
             : C1   c    41 C1   c    42 C1   c    43 C1   c    44 C1   c    45
             : C1   c    46 C1   c    47 C1   c    48 C1   c    49 C1   c    50
             : C1   c    51 C1   c    52 C1   c    53 C1   c    54 C1   c    55
             : C1   c    56 C1   c    57 C1   c    58 C1   c    59 C1   c    60
             : C7   c    61 C3   c    62 C2   c    63 C2   c    64 C2   c    65
             : C2   c    66 O1   c    67 O2   c    68 C2   c    69 C5   c    70
             : C5   c    71 C5   c    72 C4   c    73 C6   c    74 H1   c    75
             : H1   c    76 H1   c    77 H1   c    78 H1   c    79 H2   c    80
             : H2   c    81 H2   c    82 H2   c    83 H2   c    84 H2   c    85
             : H2   c    86 H2   c    87 H2   c    88
--------------------------------------------------------------------------------

  Brillouin zone sampling points :

--------------------------------------------------------------------------------
  Point number          x          y          z            Weight
--------------------------------------------------------------------------------
        1           0.000000   0.000000   0.000000         1.0000
--------------------------------------------------------------------------------


********************************************************************************
*  General input information                                                   *
********************************************************************************

  Species output for all configurations : 

--------------------------------------------------------------------------------
  Species    Type    Atomic    Atomic    Charge       Radii (Angs)     Library
                     Number     Mass       (e)     Cova   Ionic  VDW   Symbol
--------------------------------------------------------------------------------
    C1       Core        6      12.01   0.000000   0.770  0.000  1.530          
    C7       Core        6      12.01  -0.030000   0.770  0.000  1.530          
    C3       Core        6      12.01   0.000000   0.770  0.000  1.530          
    C2       Core        6      12.01  -0.115000   0.770  0.000  1.530          
    O1       Core        8      16.00  -0.500000   0.730  0.000  1.360          
    O2       Core        8      16.00  -0.170000   0.730  0.000  1.360          
    C5       Core        6      12.01  -0.120000   0.770  0.000  1.530          
    C4       Core        6      12.01   0.700000   0.770  0.000  1.530          
    C6       Core        6      12.01  -0.180000   0.770  0.000  1.530          
    H1       Core        1       1.01   0.115000   0.370  0.000  1.080          
    H2       Core        1       1.01   0.060000   0.370  0.000  1.080          
--------------------------------------------------------------------------------


  Lattice summation method = Wolf et al

  Modified method - smoothed energy only / correct forces

  Eta    =     0.223000 Angstrom**-1
  Cutoff =    12.000000 Angstrom

  Time limit = Infinity

  Maximum range for interatomic potentials =    100000.000000 Angstroms

  Intramolecular potentials :

--------------------------------------------------------------------------------
Atom  Types   Potential         A         B         C         D     Cutoffs(Ang)
  1     2                                                            Min    Max 
--------------------------------------------------------------------------------
C2   c C2   c Harmonic       40.7      1.40      0.00      0.00     0.000 1 Bond
                                                                    single      
C2   c C3   c Harmonic       40.7      1.40      0.00      0.00     0.000 1 Bond
                                                                    single      
C3   c C7   c Harmonic       27.5      1.51      0.00      0.00     0.000 1 Bond
                                                                    single      
H1   c C2   c Harmonic       31.8      1.08      0.00      0.00     0.000 1 Bond
                                                                    single      
C5   c C7   c Harmonic       23.2      1.53      0.00      0.00     0.000 1 Bond
                                                                    single      
C5   c C5   c Harmonic       23.2      1.53      0.00      0.00     0.000 1 Bond
                                                                    single      
C1   c C7   c Harmonic       27.5      1.51      0.00      0.00     0.000 1 Bond
                                                                    single      
C4   c C5   c Harmonic       27.5      1.51      0.00      0.00     0.000 1 Bond
                                                                    single      
C6   c O2   c Harmonic       27.8      1.41      0.00      0.00     0.000 1 Bond
                                                                    single      
H2   c C5   c Harmonic       29.5      1.09      0.00      0.00     0.000 1 Bond
                                                                    single      
H2   c C6   c Harmonic       29.5      1.09      0.00      0.00     0.000 1 Bond
                                                                    single      
C4   c O1   c Harmonic       45.1      1.23      0.00      0.00     0.000 1 Bond
                                                                    single      
C4   c O2   c Harmonic       18.6      1.33      0.00      0.00     0.000 1 Bond
                                                                    single      
--------------------------------------------------------------------------------

  Intramolecular Three-body potentials :

  Cosine Harmonic form:

--------------------------------------------------------------------------------
Atom    Atom    Atom           Force Constants            Theta     Cutoffs  
  1       2       3               (eV)                    (deg)  1-2  1-3  2-3
--------------------------------------------------------------------------------
C2    c C2    c C2    c                  5.4639184       120.000     Bonded
C3    c C2    c C2    c                  5.4639184       120.000     Bonded
C2    c C2    c C3    c                  5.4639184       120.000     Bonded
C3    c C2    c C7    c                  6.0710205       120.000     Bonded
C2    c H1    c C2    c                  3.0355102       120.000     Bonded
C2    c H1    c C3    c                  3.0355102       120.000     Bonded
C5    c C5    c C7    c                  5.0606292       112.700     Bonded
C5    c C5    c C5    c                  5.0606292       112.700     Bonded
C7    c C3    c C5    c                  5.4639184       114.000     Bonded
C7    c C1    c C5    c                  5.4639184       114.000     Bonded
C7    c C1    c C1    c                  3.4691546       109.500     Bonded
C5    c C4    c C5    c                  5.4639184       111.100     Bonded
C5    c H2    c C7    c                  3.2523324       110.700     Bonded
C5    c H2    c C5    c                  3.2523324       110.700     Bonded
C5    c H2    c C4    c                  3.0355102       109.500     Bonded
C6    c H2    c O2    c                  3.0355102       109.500     Bonded
C5    c H2    c H2    c                  2.8620525       107.800     Bonded
C6    c H2    c H2    c                  2.8620525       107.800     Bonded
C7    c C1    c C5    c                  5.4639184       111.100     Bonded
C7    c C1    c C3    c                  3.4691546       109.500     Bonded
C4    c C5    c O2    c                  7.0250380       111.400     Bonded
C4    c C5    c O1    c                  6.9383091       120.400     Bonded
C4    c O1    c O2    c                  7.1984957       123.400     Bonded
O2    c C4    c C6    c                  7.1984957       116.900     Bonded
C1    c C1    c C7    c                  6.0710205       120.000     Bonded
--------------------------------------------------------------------------------

  Intramolecular Four-body potentials :

  Standard form:

--------------------------------------------------------------------------------
         Atom Types             Force cst Sign Phase Phi0         Cutoffs
   1       2       3       4       (eV)                     1-2  2-3  3-4  4-1
--------------------------------------------------------------------------------
H1    c C2    c C2    c H1    c  0.3144     -   2     0.00  Bonded              
H1    c C2    c C2    c C2    c  0.3144     -   2     0.00  Bonded              
H1    c C2    c C2    c C3    c  0.3144     -   2     0.00  Bonded              
H1    c C2    c C3    c C7    c  0.3144     -   2     0.00  Bonded              
C7    c C5    c C5    c C5    c  0.2819E-01 +   1     0.00  Bonded              
C7    c C5    c C5    c C5    c  -.1084E-02 -   2     0.00  Bonded              
C7    c C5    c C5    c C5    c  0.4336E-02 +   3     0.00  Bonded              
C5    c C5    c C5    c H2    c  0.6505E-02 +   3     0.00  Bonded              
C7    c C5    c C5    c H2    c  0.6505E-02 +   3     0.00  Bonded              
H2    c C5    c C5    c H2    c  0.6505E-02 +   3     0.00  Bonded              
O1    c C4    c C5    c C5    c  -.6006E-02 +   1     0.00  Bonded              
O1    c C4    c C5    c C5    c  0.2663E-01 -   2     0.00  Bonded              
O1    c C4    c C5    c C5    c  -.1505E-01 +   3     0.00  Bonded              
O2    c C4    c C5    c C5    c  -.1199E-01 -   2     0.00  Bonded              
O2    c C4    c C5    c H2    c  0.2862E-02 -   2     0.00  Bonded              
C5    c C4    c O2    c C6    c  0.1012     +   1     0.00  Bonded              
C5    c C4    c O2    c C6    c  0.1111     -   2     0.00  Bonded              
O1    c C4    c O2    c C6    c  0.1111     -   2     0.00  Bonded              
C4    c O2    c C6    c H2    c  0.4293E-02 +   3     0.00  Bonded              
C1    c C7    c C5    c C5    c  0.2819E-01 +   1     0.00  Bonded              
C1    c C7    c C5    c C5    c  -.1084E-02 -   2     0.00  Bonded              
C1    c C7    c C5    c C5    c  0.4336E-02 +   3     0.00  Bonded              
C1    c C7    c C5    c H2    c  0.6505E-02 +   3     0.00  Bonded              
C1    c C1    c C7    c C3    c  0.3144     -   2     0.00  Bonded              
C1    c C1    c C7    c C5    c  0.3144     -   2     0.00  Bonded              
--------------------------------------------------------------------------------

  Bond-order two-body potentials :

--------------------------------------------------------------------------------
Atom  Types                 A                 B                  Cutoffs(Ang)   
  1     2                 ZetaA             ZetaB                Taper    Max   
--------------------------------------------------------------------------------
C1   c C1   c          1393.6000000000       346.7000000000     1.8000   2.1000
                          3.487900000          2.211900000    
--------------------------------------------------------------------------------

  Bond-order repulsive :

--------------------------------------------------------------------------------
Atom    Type         Alpha            N             Lambda          M           
 1/2     1/2                                                                    
--------------------------------------------------------------------------------
C1   c             0.00000000       0.72751000       2.21190000       3
C1   c
--------------------------------------------------------------------------------

  Bond-order attractive :

--------------------------------------------------------------------------------
Atom    Type         Alpha            N             Lambda          M           
 1/2     1/2           C              D                H                        
--------------------------------------------------------------------------------
C1   c  Theta       0.00000016       0.72751000       2.21190000       3
C1   c          38049.00000000       4.38400000      -0.57058000
--------------------------------------------------------------------------------

********************************************************************************
*  Output for configuration   1                                                *
********************************************************************************


  Components of energy : 

--------------------------------------------------------------------------------
  Interatomic potentials     =           1.09512567 eV
  Three-body potentials      =           7.85589367 eV
  Four-body potentials       =           2.96382269 eV
  Out of plane potentials    =           0.00000000 eV
  Bond-order potentials      =        -398.05680766 eV
  Monopole - monopole (real) =           1.80616423 eV
  Monopole - monopole (recip)=           0.00000000 eV
  Monopole - monopole (total)=           1.80616423 eV
  Wolf sum self energy       =          -1.82999609 eV
--------------------------------------------------------------------------------
  Total lattice energy       =        -386.16579748 eV
--------------------------------------------------------------------------------
  Total lattice energy       =          -37259.0964 kJ/(mole unit cells)
--------------------------------------------------------------------------------


  Number of variables =      261

  Maximum number of calculations  =         10000
  Maximum Hessian update interval =            10
  Maximum step size               =   1.000000000
  Maximum parameter tolerance     =   0.000010000
  Maximum function  tolerance     =   0.000010000
  Maximum gradient  tolerance     =   0.001000000
  Maximum gradient  component     =   0.010000000

  Symmetry not applied to optimisation

  Newton-Raphson optimiser to be used

  BFGS hessian update to be used

  Start of bulk optimisation :

  Cycle:      0 Energy:      -386.165797  Gnorm:      8.258948  CPU:    0.040
  ** Hessian calculated **
  Cycle:      1 Energy:      -391.571395  Gnorm:      4.543823  CPU:    0.116
  ** Hessian calculated **
  Cycle:      2 Energy:      -392.123099  Gnorm:      4.172089  CPU:    0.200
  ** Hessian calculated **
  Cycle:      3 Energy:      -394.020344  Gnorm:      1.034360  CPU:    0.260
  Cycle:      4 Energy:      -394.135546  Gnorm:      0.685505  CPU:    0.288
  Cycle:      5 Energy:      -394.232006  Gnorm:      0.680231  CPU:    0.320
  Cycle:      6 Energy:      -394.307671  Gnorm:      0.941303  CPU:    0.344
  Cycle:      7 Energy:      -394.339122  Gnorm:      0.751169  CPU:    0.372
  ** Hessian calculated **
  Cycle:      8 Energy:      -394.387217  Gnorm:      0.306345  CPU:    0.428
  Cycle:      9 Energy:      -394.401839  Gnorm:      0.326718  CPU:    0.456
  Cycle:     10 Energy:      -394.412370  Gnorm:      0.277398  CPU:    0.480
  Cycle:     11 Energy:      -394.419212  Gnorm:      0.178608  CPU:    0.508
  Cycle:     12 Energy:      -394.422605  Gnorm:      0.122262  CPU:    0.536
  Cycle:     13 Energy:      -394.424871  Gnorm:      0.125372  CPU:    0.560
  Cycle:     14 Energy:      -394.427871  Gnorm:      0.132153  CPU:    0.588
  Cycle:     15 Energy:      -394.431576  Gnorm:      0.171996  CPU:    0.616
  Cycle:     16 Energy:      -394.435954  Gnorm:      0.145479  CPU:    0.640
  Cycle:     17 Energy:      -394.438717  Gnorm:      0.152769  CPU:    0.668
  ** Hessian calculated **
  Cycle:     18 Energy:      -394.440085  Gnorm:      0.094855  CPU:    0.724
  Cycle:     19 Energy:      -394.442078  Gnorm:      0.119256  CPU:    0.760
  Cycle:     20 Energy:      -394.443798  Gnorm:      0.116734  CPU:    0.784
  Cycle:     21 Energy:      -394.445217  Gnorm:      0.117098  CPU:    0.812
  Cycle:     22 Energy:      -394.447108  Gnorm:      0.133947  CPU:    0.840
  Cycle:     23 Energy:      -394.450378  Gnorm:      0.157750  CPU:    0.872
  Cycle:     24 Energy:      -394.454723  Gnorm:      0.210383  CPU:    0.900
  Cycle:     25 Energy:      -394.461782  Gnorm:      0.279357  CPU:    0.932
  Cycle:     26 Energy:      -394.468581  Gnorm:      0.175233  CPU:    0.960
  Cycle:     27 Energy:      -394.472973  Gnorm:      0.191386  CPU:    0.992
  ** Hessian calculated **
  Cycle:     28 Energy:      -394.476558  Gnorm:      0.141693  CPU:    1.052
  Cycle:     29 Energy:      -394.478900  Gnorm:      0.133136  CPU:    1.080
  Cycle:     30 Energy:      -394.480969  Gnorm:      0.117499  CPU:    1.108
  Cycle:     31 Energy:      -394.482701  Gnorm:      0.108698  CPU:    1.136
  Cycle:     32 Energy:      -394.485325  Gnorm:      0.100146  CPU:    1.168
  Cycle:     33 Energy:      -394.487322  Gnorm:      0.123092  CPU:    1.196
  Cycle:     34 Energy:      -394.489753  Gnorm:      0.142042  CPU:    1.224
  Cycle:     35 Energy:      -394.492989  Gnorm:      0.143197  CPU:    1.252
  Cycle:     36 Energy:      -394.494808  Gnorm:      0.120600  CPU:    1.276
  Cycle:     37 Energy:      -394.497888  Gnorm:      0.167705  CPU:    1.312
  ** Hessian calculated **
  Cycle:     38 Energy:      -394.499645  Gnorm:      0.090160  CPU:    1.372
  Cycle:     39 Energy:      -394.500705  Gnorm:      0.104718  CPU:    1.396
  Cycle:     40 Energy:      -394.501898  Gnorm:      0.089647  CPU:    1.424
  Cycle:     41 Energy:      -394.503102  Gnorm:      0.086190  CPU:    1.452
  Cycle:     42 Energy:      -394.504152  Gnorm:      0.082285  CPU:    1.476
  Cycle:     43 Energy:      -394.505304  Gnorm:      0.094445  CPU:    1.512
  Cycle:     44 Energy:      -394.506586  Gnorm:      0.096134  CPU:    1.540
  Cycle:     45 Energy:      -394.507836  Gnorm:      0.091886  CPU:    1.564
  Cycle:     46 Energy:      -394.508785  Gnorm:      0.073891  CPU:    1.592
  Cycle:     47 Energy:      -394.509977  Gnorm:      0.104682  CPU:    1.620
  ** Hessian calculated **
  Cycle:     48 Energy:      -394.510673  Gnorm:      0.052361  CPU:    1.676
  Cycle:     49 Energy:      -394.511248  Gnorm:      0.053059  CPU:    1.704
  Cycle:     50 Energy:      -394.511710  Gnorm:      0.058675  CPU:    1.732
  Cycle:     51 Energy:      -394.512190  Gnorm:      0.053387  CPU:    1.764
  Cycle:     52 Energy:      -394.512593  Gnorm:      0.050994  CPU:    1.800
  Cycle:     53 Energy:      -394.512952  Gnorm:      0.047215  CPU:    1.824
  Cycle:     54 Energy:      -394.513288  Gnorm:      0.048356  CPU:    1.852
  Cycle:     55 Energy:      -394.513624  Gnorm:      0.045758  CPU:    1.880
  Cycle:     56 Energy:      -394.513879  Gnorm:      0.041534  CPU:    1.908
  Cycle:     57 Energy:      -394.514175  Gnorm:      0.057812  CPU:    1.936
  ** Hessian calculated **
  Cycle:     58 Energy:      -394.514397  Gnorm:      0.034620  CPU:    1.992
  Cycle:     59 Energy:      -394.514576  Gnorm:      0.039801  CPU:    2.020
  Cycle:     60 Energy:      -394.514757  Gnorm:      0.034162  CPU:    2.048
  Cycle:     61 Energy:      -394.514922  Gnorm:      0.031355  CPU:    2.072
  Cycle:     62 Energy:      -394.515070  Gnorm:      0.033622  CPU:    2.100
  Cycle:     63 Energy:      -394.515230  Gnorm:      0.034275  CPU:    2.128
  Cycle:     64 Energy:      -394.515404  Gnorm:      0.036285  CPU:    2.152
  Cycle:     65 Energy:      -394.515557  Gnorm:      0.035240  CPU:    2.180
  Cycle:     66 Energy:      -394.515719  Gnorm:      0.027800  CPU:    2.204
  Cycle:     67 Energy:      -394.515876  Gnorm:      0.041711  CPU:    2.232
  ** Hessian calculated **
  Cycle:     68 Energy:      -394.515998  Gnorm:      0.024645  CPU:    2.292
  Cycle:     69 Energy:      -394.516116  Gnorm:      0.025909  CPU:    2.316
  Cycle:     70 Energy:      -394.516214  Gnorm:      0.027522  CPU:    2.344
  Cycle:     71 Energy:      -394.516319  Gnorm:      0.026759  CPU:    2.372
  Cycle:     72 Energy:      -394.516403  Gnorm:      0.024883  CPU:    2.396
  Cycle:     73 Energy:      -394.516495  Gnorm:      0.025526  CPU:    2.424
  Cycle:     74 Energy:      -394.516585  Gnorm:      0.025700  CPU:    2.452
  Cycle:     75 Energy:      -394.516686  Gnorm:      0.029558  CPU:    2.476
  Cycle:     76 Energy:      -394.516785  Gnorm:      0.023395  CPU:    2.504
  Cycle:     77 Energy:      -394.516896  Gnorm:      0.040063  CPU:    2.528
  ** Hessian calculated **
  Cycle:     78 Energy:      -394.516992  Gnorm:      0.022607  CPU:    2.588
  Cycle:     79 Energy:      -394.517073  Gnorm:      0.027602  CPU:    2.616
  Cycle:     80 Energy:      -394.517155  Gnorm:      0.022968  CPU:    2.640
  Cycle:     81 Energy:      -394.517222  Gnorm:      0.022121  CPU:    2.668
  Cycle:     82 Energy:      -394.517292  Gnorm:      0.022477  CPU:    2.692
  Cycle:     83 Energy:      -394.517362  Gnorm:      0.024176  CPU:    2.720
  Cycle:     84 Energy:      -394.517446  Gnorm:      0.025779  CPU:    2.748
  Cycle:     85 Energy:      -394.517526  Gnorm:      0.025522  CPU:    2.772
  Cycle:     86 Energy:      -394.517622  Gnorm:      0.022791  CPU:    2.800
  Cycle:     87 Energy:      -394.517708  Gnorm:      0.034561  CPU:    2.828
  ** Hessian calculated **
  Cycle:     88 Energy:      -394.517784  Gnorm:      0.020759  CPU:    2.884
  Cycle:     89 Energy:      -394.517866  Gnorm:      0.021523  CPU:    2.912
  Cycle:     90 Energy:      -394.517935  Gnorm:      0.022700  CPU:    2.936
  Cycle:     91 Energy:      -394.518005  Gnorm:      0.022509  CPU:    2.964
  Cycle:     92 Energy:      -394.518066  Gnorm:      0.021412  CPU:    2.992
  Cycle:     93 Energy:      -394.518130  Gnorm:      0.021571  CPU:    3.016
  Cycle:     94 Energy:      -394.518191  Gnorm:      0.022856  CPU:    3.044
  Cycle:     95 Energy:      -394.518267  Gnorm:      0.025819  CPU:    3.068
  Cycle:     96 Energy:      -394.518339  Gnorm:      0.020466  CPU:    3.096
  Cycle:     97 Energy:      -394.518418  Gnorm:      0.035001  CPU:    3.124
  ** Hessian calculated **
  Cycle:     98 Energy:      -394.518490  Gnorm:      0.019883  CPU:    3.180
  Cycle:     99 Energy:      -394.518553  Gnorm:      0.025053  CPU:    3.208
  Cycle:    100 Energy:      -394.518619  Gnorm:      0.020926  CPU:    3.232
  Cycle:    101 Energy:      -394.518671  Gnorm:      0.020494  CPU:    3.260
  Cycle:    102 Energy:      -394.518731  Gnorm:      0.020055  CPU:    3.288
  Cycle:    103 Energy:      -394.518784  Gnorm:      0.021445  CPU:    3.312
  Cycle:    104 Energy:      -394.518852  Gnorm:      0.022729  CPU:    3.340
  Cycle:    105 Energy:      -394.518917  Gnorm:      0.022365  CPU:    3.364
  Cycle:    106 Energy:      -394.518992  Gnorm:      0.021013  CPU:    3.392
  Cycle:    107 Energy:      -394.519058  Gnorm:      0.030534  CPU:    3.420
  ** Hessian calculated **
  Cycle:    108 Energy:      -394.519120  Gnorm:      0.019271  CPU:    3.476
  Cycle:    109 Energy:      -394.519185  Gnorm:      0.019964  CPU:    3.504
  Cycle:    110 Energy:      -394.519242  Gnorm:      0.020629  CPU:    3.528
  Cycle:    111 Energy:      -394.519301  Gnorm:      0.020203  CPU:    3.556
  Cycle:    112 Energy:      -394.519348  Gnorm:      0.019316  CPU:    3.580
  Cycle:    113 Energy:      -394.519404  Gnorm:      0.020196  CPU:    3.608
  Cycle:    114 Energy:      -394.519453  Gnorm:      0.020905  CPU:    3.636
  Cycle:    115 Energy:      -394.519516  Gnorm:      0.023723  CPU:    3.660
  Cycle:    116 Energy:      -394.519574  Gnorm:      0.018648  CPU:    3.688
  Cycle:    117 Energy:      -394.519637  Gnorm:      0.031669  CPU:    3.712
  ** Hessian calculated **
  Cycle:    118 Energy:      -394.519695  Gnorm:      0.018192  CPU:    3.772
  Cycle:    119 Energy:      -394.519746  Gnorm:      0.022863  CPU:    3.796
  Cycle:    120 Energy:      -394.519801  Gnorm:      0.019291  CPU:    3.824
  Cycle:    121 Energy:      -394.519844  Gnorm:      0.019140  CPU:    3.852
  Cycle:    122 Energy:      -394.519896  Gnorm:      0.018395  CPU:    3.876
  Cycle:    123 Energy:      -394.519938  Gnorm:      0.019261  CPU:    3.904
  Cycle:    124 Energy:      -394.519995  Gnorm:      0.020416  CPU:    3.932
  Cycle:    125 Energy:      -394.520049  Gnorm:      0.020184  CPU:    3.956
  Cycle:    126 Energy:      -394.520110  Gnorm:      0.019371  CPU:    3.984
  Cycle:    127 Energy:      -394.520165  Gnorm:      0.027759  CPU:    4.008
  ** Hessian calculated **
  Cycle:    128 Energy:      -394.520419  Gnorm:      0.027628  CPU:    4.092
  Cycle:    129 Energy:      -394.520792  Gnorm:      0.027469  CPU:    4.140
  Cycle:    130 Energy:      -394.521136  Gnorm:      0.027427  CPU:    4.184
  ** Hessian calculated **
  Cycle:    131 Energy:      -394.521186  Gnorm:      0.018014  CPU:    4.244
  Cycle:    132 Energy:      -394.521239  Gnorm:      0.018700  CPU:    4.268
  Cycle:    133 Energy:      -394.521285  Gnorm:      0.018418  CPU:    4.296
  Cycle:    134 Energy:      -394.521332  Gnorm:      0.018139  CPU:    4.324
  Cycle:    135 Energy:      -394.521368  Gnorm:      0.017107  CPU:    4.352
  Cycle:    136 Energy:      -394.521414  Gnorm:      0.018825  CPU:    4.380
  Cycle:    137 Energy:      -394.521453  Gnorm:      0.018680  CPU:    4.404
  Cycle:    138 Energy:      -394.521501  Gnorm:      0.020970  CPU:    4.432
  Cycle:    139 Energy:      -394.521547  Gnorm:      0.017255  CPU:    4.456
  Cycle:    140 Energy:      -394.521596  Gnorm:      0.028024  CPU:    4.484
  ** Hessian calculated **
  Cycle:    141 Energy:      -394.521642  Gnorm:      0.016648  CPU:    4.540
  Cycle:    142 Energy:      -394.521683  Gnorm:      0.020258  CPU:    4.568
  Cycle:    143 Energy:      -394.521725  Gnorm:      0.017574  CPU:    4.596
  Cycle:    144 Energy:      -394.521761  Gnorm:      0.017770  CPU:    4.620
  Cycle:    145 Energy:      -394.521803  Gnorm:      0.016481  CPU:    4.648
  Cycle:    146 Energy:      -394.521836  Gnorm:      0.017277  CPU:    4.672
  Cycle:    147 Energy:      -394.521881  Gnorm:      0.017865  CPU:    4.700
  Cycle:    148 Energy:      -394.521925  Gnorm:      0.018436  CPU:    4.728
  Cycle:    149 Energy:      -394.521974  Gnorm:      0.017818  CPU:    4.752
  Cycle:    150 Energy:      -394.522019  Gnorm:      0.025159  CPU:    4.780
  ** Hessian calculated **
  Cycle:    151 Energy:      -394.522061  Gnorm:      0.016788  CPU:    4.836
  Cycle:    152 Energy:      -394.522107  Gnorm:      0.017275  CPU:    4.864
  Cycle:    153 Energy:      -394.522146  Gnorm:      0.017037  CPU:    4.892
  Cycle:    154 Energy:      -394.522186  Gnorm:      0.016709  CPU:    4.916
  Cycle:    155 Energy:      -394.522216  Gnorm:      0.015785  CPU:    4.944
  Cycle:    156 Energy:      -394.522256  Gnorm:      0.017524  CPU:    4.968
  Cycle:    157 Energy:      -394.522290  Gnorm:      0.017336  CPU:    4.996
  Cycle:    158 Energy:      -394.522330  Gnorm:      0.019016  CPU:    5.024
  Cycle:    159 Energy:      -394.522368  Gnorm:      0.015921  CPU:    5.048
  Cycle:    160 Energy:      -394.522409  Gnorm:      0.026135  CPU:    5.076
  ** Hessian calculated **
  Cycle:    161 Energy:      -394.522448  Gnorm:      0.015508  CPU:    5.132
  Cycle:    162 Energy:      -394.522482  Gnorm:      0.018597  CPU:    5.160
  Cycle:    163 Energy:      -394.522519  Gnorm:      0.016317  CPU:    5.188
  Cycle:    164 Energy:      -394.522549  Gnorm:      0.016772  CPU:    5.212
  Cycle:    165 Energy:      -394.522586  Gnorm:      0.015252  CPU:    5.240
  Cycle:    166 Energy:      -394.522614  Gnorm:      0.015968  CPU:    5.264
  Cycle:    167 Energy:      -394.522652  Gnorm:      0.016299  CPU:    5.292
  Cycle:    168 Energy:      -394.522690  Gnorm:      0.017097  CPU:    5.320
  Cycle:    169 Energy:      -394.522734  Gnorm:      0.016715  CPU:    5.344
  Cycle:    170 Energy:      -394.522772  Gnorm:      0.023470  CPU:    5.372
  ** Hessian calculated **
  Cycle:    171 Energy:      -394.522808  Gnorm:      0.015859  CPU:    5.428
  Cycle:    172 Energy:      -394.522849  Gnorm:      0.015989  CPU:    5.456
  Cycle:    173 Energy:      -394.522884  Gnorm:      0.015814  CPU:    5.484
  Cycle:    174 Energy:      -394.522918  Gnorm:      0.015450  CPU:    5.508
  Cycle:    175 Energy:      -394.522944  Gnorm:      0.014670  CPU:    5.536
  Cycle:    176 Energy:      -394.522979  Gnorm:      0.016481  CPU:    5.560
  Cycle:    177 Energy:      -394.523008  Gnorm:      0.016138  CPU:    5.588
  Cycle:    178 Energy:      -394.523043  Gnorm:      0.017396  CPU:    5.612
  Cycle:    179 Energy:      -394.523074  Gnorm:      0.014937  CPU:    5.640
  Cycle:    180 Energy:      -394.523110  Gnorm:      0.024610  CPU:    5.668
  ** Hessian calculated **
  Cycle:    181 Energy:      -394.523144  Gnorm:      0.014590  CPU:    5.724
  Cycle:    182 Energy:      -394.523174  Gnorm:      0.017213  CPU:    5.752
  Cycle:    183 Energy:      -394.523205  Gnorm:      0.015253  CPU:    5.776
  Cycle:    184 Energy:      -394.523232  Gnorm:      0.016025  CPU:    5.804
  Cycle:    185 Energy:      -394.523265  Gnorm:      0.014257  CPU:    5.828
  Cycle:    186 Energy:      -394.523289  Gnorm:      0.014845  CPU:    5.856
  Cycle:    187 Energy:      -394.523323  Gnorm:      0.014881  CPU:    5.880
  Cycle:    188 Energy:      -394.523356  Gnorm:      0.015954  CPU:    5.908
  Cycle:    189 Energy:      -394.523394  Gnorm:      0.015869  CPU:    5.936
  Cycle:    190 Energy:      -394.523429  Gnorm:      0.022161  CPU:    5.960
  ** Hessian calculated **
  Cycle:    191 Energy:      -394.523461  Gnorm:      0.015115  CPU:    6.020
  Cycle:    192 Energy:      -394.523499  Gnorm:      0.014871  CPU:    6.048
  Cycle:    193 Energy:      -394.523529  Gnorm:      0.014745  CPU:    6.072
  Cycle:    194 Energy:      -394.523559  Gnorm:      0.014366  CPU:    6.100
  Cycle:    195 Energy:      -394.523582  Gnorm:      0.013790  CPU:    6.128
  Cycle:    196 Energy:      -394.523614  Gnorm:      0.015080  CPU:    6.156
  Cycle:    197 Energy:      -394.523639  Gnorm:      0.015207  CPU:    6.180
  Cycle:    198 Energy:      -394.523670  Gnorm:      0.015740  CPU:    6.208
  Cycle:    199 Energy:      -394.523696  Gnorm:      0.014142  CPU:    6.232
  Cycle:    200 Energy:      -394.523728  Gnorm:      0.023318  CPU:    6.260
  ** Hessian calculated **
  Cycle:    201 Energy:      -394.523759  Gnorm:      0.013876  CPU:    6.320
  Cycle:    202 Energy:      -394.523784  Gnorm:      0.015729  CPU:    6.344
  Cycle:    203 Energy:      -394.523811  Gnorm:      0.014260  CPU:    6.372
  Cycle:    204 Energy:      -394.523834  Gnorm:      0.015594  CPU:    6.396
  Cycle:    205 Energy:      -394.523866  Gnorm:      0.013418  CPU:    6.424
  Cycle:    206 Energy:      -394.523887  Gnorm:      0.013880  CPU:    6.452
  Cycle:    207 Energy:      -394.523916  Gnorm:      0.013634  CPU:    6.476
  Cycle:    208 Energy:      -394.523947  Gnorm:      0.015493  CPU:    6.504
  Cycle:    209 Energy:      -394.523982  Gnorm:      0.015348  CPU:    6.532
  Cycle:    210 Energy:      -394.524014  Gnorm:      0.021222  CPU:    6.556
  ** Hessian calculated **
  Cycle:    211 Energy:      -394.524044  Gnorm:      0.014644  CPU:    6.616
  Cycle:    212 Energy:      -394.524079  Gnorm:      0.014351  CPU:    6.644
  Cycle:    213 Energy:      -394.524107  Gnorm:      0.013744  CPU:    6.668
  Cycle:    214 Energy:      -394.524134  Gnorm:      0.013456  CPU:    6.696
  Cycle:    215 Energy:      -394.524154  Gnorm:      0.013054  CPU:    6.724
  Cycle:    216 Energy:      -394.524185  Gnorm:      0.013619  CPU:    6.748
  Cycle:    217 Energy:      -394.524208  Gnorm:      0.014346  CPU:    6.776
  Cycle:    218 Energy:      -394.524233  Gnorm:      0.013910  CPU:    6.804
  Cycle:    219 Energy:      -394.524256  Gnorm:      0.013658  CPU:    6.828
  Cycle:    220 Energy:      -394.524285  Gnorm:      0.021837  CPU:    6.856
  ** Hessian calculated **
  Cycle:    221 Energy:      -394.524312  Gnorm:      0.013391  CPU:    6.916
  Cycle:    222 Energy:      -394.524334  Gnorm:      0.014076  CPU:    6.940
  Cycle:    223 Energy:      -394.524356  Gnorm:      0.013338  CPU:    6.968
  Cycle:    224 Energy:      -394.524376  Gnorm:      0.015576  CPU:    6.996
  Cycle:    225 Energy:      -394.524409  Gnorm:      0.012209  CPU:    7.020
  Cycle:    226 Energy:      -394.524427  Gnorm:      0.013134  CPU:    7.048
  Cycle:    227 Energy:      -394.524454  Gnorm:      0.012607  CPU:    7.076
  Cycle:    228 Energy:      -394.524484  Gnorm:      0.015614  CPU:    7.104
  Cycle:    229 Energy:      -394.524518  Gnorm:      0.015135  CPU:    7.128
  Cycle:    230 Energy:      -394.524550  Gnorm:      0.021582  CPU:    7.156
  ** Hessian calculated **
  Cycle:    231 Energy:      -394.524580  Gnorm:      0.014639  CPU:    7.212
  Cycle:    232 Energy:      -394.524614  Gnorm:      0.015111  CPU:    7.240
  Cycle:    233 Energy:      -394.524642  Gnorm:      0.012483  CPU:    7.264
  Cycle:    234 Energy:      -394.524666  Gnorm:      0.012760  CPU:    7.292
  Cycle:    235 Energy:      -394.524683  Gnorm:      0.012239  CPU:    7.320
  Cycle:    236 Energy:      -394.524714  Gnorm:      0.011932  CPU:    7.344
  Cycle:    237 Energy:      -394.524735  Gnorm:      0.013612  CPU:    7.372
  Cycle:    238 Energy:      -394.524756  Gnorm:      0.012142  CPU:    7.400
  Cycle:    239 Energy:      -394.524777  Gnorm:      0.013535  CPU:    7.424
  Cycle:    240 Energy:      -394.524803  Gnorm:      0.019564  CPU:    7.452
  ** Hessian calculated **
  Cycle:    241 Energy:      -394.524826  Gnorm:      0.012973  CPU:    7.512
  Cycle:    242 Energy:      -394.524846  Gnorm:      0.012141  CPU:    7.536
  Cycle:    243 Energy:      -394.524864  Gnorm:      0.013032  CPU:    7.564
  Cycle:    244 Energy:      -394.524883  Gnorm:      0.016079  CPU:    7.592
  Cycle:    245 Energy:      -394.524916  Gnorm:      0.011025  CPU:    7.616
  Cycle:    246 Energy:      -394.524932  Gnorm:      0.012804  CPU:    7.644
  Cycle:    247 Energy:      -394.524956  Gnorm:      0.012062  CPU:    7.672
  Cycle:    248 Energy:      -394.524995  Gnorm:      0.017798  CPU:    7.704
  Cycle:    249 Energy:      -394.525024  Gnorm:      0.014624  CPU:    7.732
  Cycle:    250 Energy:      -394.525072  Gnorm:      0.030585  CPU:    7.764
  ** Hessian calculated **
  Cycle:    251 Energy:      -394.525117  Gnorm:      0.014151  CPU:    7.824
  Cycle:    252 Energy:      -394.525144  Gnorm:      0.017247  CPU:    7.852
  Cycle:    253 Energy:      -394.525179  Gnorm:      0.011571  CPU:    7.880
  Cycle:    254 Energy:      -394.525200  Gnorm:      0.012253  CPU:    7.908
  Cycle:    255 Energy:      -394.525217  Gnorm:      0.011509  CPU:    7.932
  Cycle:    256 Energy:      -394.525245  Gnorm:      0.011797  CPU:    7.960
  Cycle:    257 Energy:      -394.525268  Gnorm:      0.013673  CPU:    7.992
  Cycle:    258 Energy:      -394.525285  Gnorm:      0.010129  CPU:    8.016
  Cycle:    259 Energy:      -394.525306  Gnorm:      0.010516  CPU:    8.044
  Cycle:    260 Energy:      -394.525326  Gnorm:      0.016282  CPU:    8.072
  ** Hessian calculated **
  Cycle:    261 Energy:      -394.525344  Gnorm:      0.012468  CPU:    8.132
  Cycle:    262 Energy:      -394.525365  Gnorm:      0.009082  CPU:    8.156
  Cycle:    263 Energy:      -394.525383  Gnorm:      0.011134  CPU:    8.184
  Cycle:    264 Energy:      -394.525403  Gnorm:      0.011051  CPU:    8.212
  Cycle:    265 Energy:      -394.525427  Gnorm:      0.009550  CPU:    8.236
  Cycle:    266 Energy:      -394.525445  Gnorm:      0.011659  CPU:    8.264
  Cycle:    267 Energy:      -394.525463  Gnorm:      0.013169  CPU:    8.288
  Cycle:    268 Energy:      -394.525499  Gnorm:      0.011940  CPU:    8.316
  Cycle:    269 Energy:      -394.525529  Gnorm:      0.013877  CPU:    8.344
  Cycle:    270 Energy:      -394.525567  Gnorm:      0.020572  CPU:    8.376
  ** Hessian calculated **
  Cycle:    271 Energy:      -394.525761  Gnorm:      0.020505  CPU:    8.460
  Cycle:    272 Energy:      -394.525976  Gnorm:      0.020534  CPU:    8.504
  Cycle:    273 Energy:      -394.526291  Gnorm:      0.020507  CPU:    8.552
  ** Hessian calculated **
  Cycle:    274 Energy:      -394.526321  Gnorm:      0.017491  CPU:    8.612
  Cycle:    275 Energy:      -394.526378  Gnorm:      0.012723  CPU:    8.636
  Cycle:    276 Energy:      -394.526401  Gnorm:      0.012070  CPU:    8.664
  Cycle:    277 Energy:      -394.526416  Gnorm:      0.010935  CPU:    8.692
  Cycle:    278 Energy:      -394.526434  Gnorm:      0.014364  CPU:    8.716
  Cycle:    279 Energy:      -394.526460  Gnorm:      0.014125  CPU:    8.744
  Cycle:    280 Energy:      -394.526480  Gnorm:      0.013941  CPU:    8.772
  Cycle:    281 Energy:      -394.526499  Gnorm:      0.011369  CPU:    8.800
  Cycle:    282 Energy:      -394.526511  Gnorm:      0.010889  CPU:    8.824
  Cycle:    283 Energy:      -394.526535  Gnorm:      0.023283  CPU:    8.860
  ** Hessian calculated **
  Cycle:    284 Energy:      -394.526557  Gnorm:      0.010567  CPU:    8.916
  Cycle:    285 Energy:      -394.526568  Gnorm:      0.011492  CPU:    8.944
  Cycle:    286 Energy:      -394.526585  Gnorm:      0.010317  CPU:    8.968
  Cycle:    287 Energy:      -394.526604  Gnorm:      0.011682  CPU:    8.996
  Cycle:    288 Energy:      -394.526630  Gnorm:      0.012137  CPU:    9.024
  Cycle:    289 Energy:      -394.526650  Gnorm:      0.011199  CPU:    9.052
  Cycle:    290 Energy:      -394.526663  Gnorm:      0.010846  CPU:    9.076
  Cycle:    291 Energy:      -394.526680  Gnorm:      0.015519  CPU:    9.104
  Cycle:    292 Energy:      -394.526709  Gnorm:      0.013250  CPU:    9.128
  Cycle:    293 Energy:      -394.526783  Gnorm:      0.016695  CPU:    9.176
  ** Hessian calculated **
  Cycle:    294 Energy:      -394.526944  Gnorm:      0.016664  CPU:    9.260
  Cycle:    295 Energy:      -394.527207  Gnorm:      0.016671  CPU:    9.308
  Cycle:    296 Energy:      -394.527635  Gnorm:      0.016964  CPU:    9.352
  Cycle:    297 Energy:      -394.527847  Gnorm:      0.017415  CPU:    9.392
  Cycle:    298 Energy:      -394.527926  Gnorm:      0.018135  CPU:    9.440
  ** Hessian calculated **
  Cycle:    299 Energy:      -394.527949  Gnorm:      0.014573  CPU:    9.496
  Cycle:    300 Energy:      -394.527983  Gnorm:      0.011668  CPU:    9.524
  Cycle:    301 Energy:      -394.527999  Gnorm:      0.009751  CPU:    9.552
  Cycle:    302 Energy:      -394.528007  Gnorm:      0.008367  CPU:    9.580
  Cycle:    303 Energy:      -394.528020  Gnorm:      0.008020  CPU:    9.608
  Cycle:    304 Energy:      -394.528039  Gnorm:      0.008779  CPU:    9.636
  Cycle:    305 Energy:      -394.528068  Gnorm:      0.014283  CPU:    9.672
  Cycle:    306 Energy:      -394.528088  Gnorm:      0.014092  CPU:    9.700
  Cycle:    307 Energy:      -394.528112  Gnorm:      0.013435  CPU:    9.724
  Cycle:    308 Energy:      -394.528131  Gnorm:      0.014404  CPU:    9.752
  ** Hessian calculated **
  Cycle:    309 Energy:      -394.528144  Gnorm:      0.011613  CPU:    9.808
  Cycle:    310 Energy:      -394.528164  Gnorm:      0.011714  CPU:    9.836
  Cycle:    311 Energy:      -394.528182  Gnorm:      0.012379  CPU:    9.864
  Cycle:    312 Energy:      -394.528209  Gnorm:      0.012852  CPU:    9.892
  Cycle:    313 Energy:      -394.528233  Gnorm:      0.011733  CPU:    9.916
  Cycle:    314 Energy:      -394.528247  Gnorm:      0.009966  CPU:    9.944
  Cycle:    315 Energy:      -394.528256  Gnorm:      0.009941  CPU:    9.972
  Cycle:    316 Energy:      -394.528272  Gnorm:      0.009094  CPU:   10.000
  Cycle:    317 Energy:      -394.528290  Gnorm:      0.010898  CPU:   10.024
  Cycle:    318 Energy:      -394.528323  Gnorm:      0.018067  CPU:   10.060
  ** Hessian calculated **
  Cycle:    319 Energy:      -394.528345  Gnorm:      0.014515  CPU:   10.116
  Cycle:    320 Energy:      -394.528376  Gnorm:      0.013532  CPU:   10.148
  Cycle:    321 Energy:      -394.528391  Gnorm:      0.009706  CPU:   10.176
  Cycle:    322 Energy:      -394.528402  Gnorm:      0.011775  CPU:   10.200
  Cycle:    323 Energy:      -394.528418  Gnorm:      0.010340  CPU:   10.228
  Cycle:    324 Energy:      -394.528433  Gnorm:      0.013958  CPU:   10.256
  Cycle:    325 Energy:      -394.528462  Gnorm:      0.012389  CPU:   10.284
  Cycle:    326 Energy:      -394.528483  Gnorm:      0.009796  CPU:   10.312
  Cycle:    327 Energy:      -394.528496  Gnorm:      0.011802  CPU:   10.336
  Cycle:    328 Energy:      -394.528514  Gnorm:      0.015261  CPU:   10.364
  ** Hessian calculated **
  Cycle:    329 Energy:      -394.528526  Gnorm:      0.010996  CPU:   10.424
  Cycle:    330 Energy:      -394.528545  Gnorm:      0.009984  CPU:   10.452
  Cycle:    331 Energy:      -394.528566  Gnorm:      0.010686  CPU:   10.480
  Cycle:    332 Energy:      -394.528588  Gnorm:      0.012679  CPU:   10.508
  Cycle:    333 Energy:      -394.528609  Gnorm:      0.011532  CPU:   10.536
  Cycle:    334 Energy:      -394.528625  Gnorm:      0.010217  CPU:   10.560
  Cycle:    335 Energy:      -394.528634  Gnorm:      0.010365  CPU:   10.588
  Cycle:    336 Energy:      -394.528649  Gnorm:      0.010192  CPU:   10.616
  Cycle:    337 Energy:      -394.528667  Gnorm:      0.009404  CPU:   10.644
  Cycle:    338 Energy:      -394.528696  Gnorm:      0.016965  CPU:   10.680
  ** Hessian calculated **
  Cycle:    339 Energy:      -394.528846  Gnorm:      0.016918  CPU:   10.768
  Cycle:    340 Energy:      -394.529090  Gnorm:      0.016871  CPU:   10.816
  Cycle:    341 Energy:      -394.529599  Gnorm:      0.017048  CPU:   10.864
  ** Hessian calculated **
  Cycle:    342 Energy:      -394.529616  Gnorm:      0.014236  CPU:   10.924
  Cycle:    343 Energy:      -394.529641  Gnorm:      0.011621  CPU:   10.952
  Cycle:    344 Energy:      -394.529654  Gnorm:      0.010339  CPU:   10.984
  Cycle:    345 Energy:      -394.529666  Gnorm:      0.011885  CPU:   11.012
  Cycle:    346 Energy:      -394.529685  Gnorm:      0.010886  CPU:   11.040
  Cycle:    347 Energy:      -394.529699  Gnorm:      0.012873  CPU:   11.064
  Cycle:    348 Energy:      -394.529722  Gnorm:      0.011367  CPU:   11.092
  Cycle:    349 Energy:      -394.529739  Gnorm:      0.009818  CPU:   11.120
  Cycle:    350 Energy:      -394.529749  Gnorm:      0.010238  CPU:   11.148
  Cycle:    351 Energy:      -394.529763  Gnorm:      0.014166  CPU:   11.172
  ** Hessian calculated **
  Cycle:    352 Energy:      -394.529873  Gnorm:      0.014131  CPU:   11.260
  Cycle:    353 Energy:      -394.530037  Gnorm:      0.014077  CPU:   11.304
  Cycle:    354 Energy:      -394.530163  Gnorm:      0.014056  CPU:   11.352
  Cycle:    355 Energy:      -394.530181  Gnorm:      0.014073  CPU:   11.380
  ** Hessian calculated **
  Cycle:    356 Energy:      -394.530192  Gnorm:      0.010313  CPU:   11.440
  Cycle:    357 Energy:      -394.530205  Gnorm:      0.010803  CPU:   11.468
  Cycle:    358 Energy:      -394.530220  Gnorm:      0.011417  CPU:   11.492
  Cycle:    359 Energy:      -394.530240  Gnorm:      0.014782  CPU:   11.520
  Cycle:    360 Energy:      -394.530260  Gnorm:      0.011514  CPU:   11.548
  Cycle:    361 Energy:      -394.530275  Gnorm:      0.010000  CPU:   11.572
  Cycle:    362 Energy:      -394.530285  Gnorm:      0.009540  CPU:   11.600
  Cycle:    363 Energy:      -394.530297  Gnorm:      0.012555  CPU:   11.628
  Cycle:    364 Energy:      -394.530319  Gnorm:      0.009942  CPU:   11.656
  Cycle:    365 Energy:      -394.530340  Gnorm:      0.013776  CPU:   11.680
  ** Hessian calculated **
  Cycle:    366 Energy:      -394.530355  Gnorm:      0.012768  CPU:   11.740
  Cycle:    367 Energy:      -394.530377  Gnorm:      0.012028  CPU:   11.768
  Cycle:    368 Energy:      -394.530390  Gnorm:      0.009764  CPU:   11.796
  Cycle:    369 Energy:      -394.530400  Gnorm:      0.010371  CPU:   11.824
  Cycle:    370 Energy:      -394.530414  Gnorm:      0.010698  CPU:   11.848
  Cycle:    371 Energy:      -394.530434  Gnorm:      0.012550  CPU:   11.876
  Cycle:    372 Energy:      -394.530454  Gnorm:      0.011778  CPU:   11.904
  Cycle:    373 Energy:      -394.530468  Gnorm:      0.011087  CPU:   11.928
  Cycle:    374 Energy:      -394.530481  Gnorm:      0.010667  CPU:   11.956
  Cycle:    375 Energy:      -394.530493  Gnorm:      0.014929  CPU:   11.980
  ** Hessian calculated **
  Cycle:    376 Energy:      -394.530505  Gnorm:      0.010207  CPU:   12.040
  Cycle:    377 Energy:      -394.530517  Gnorm:      0.010196  CPU:   12.068
  Cycle:    378 Energy:      -394.530529  Gnorm:      0.011096  CPU:   12.092
  Cycle:    379 Energy:      -394.530547  Gnorm:      0.013957  CPU:   12.120
  Cycle:    380 Energy:      -394.530568  Gnorm:      0.012380  CPU:   12.148
  Cycle:    381 Energy:      -394.530583  Gnorm:      0.010014  CPU:   12.172
  Cycle:    382 Energy:      -394.530593  Gnorm:      0.009298  CPU:   12.200
  Cycle:    383 Energy:      -394.530606  Gnorm:      0.011620  CPU:   12.228
  Cycle:    384 Energy:      -394.530625  Gnorm:      0.010016  CPU:   12.252
  Cycle:    385 Energy:      -394.530645  Gnorm:      0.012500  CPU:   12.280
  ** Hessian calculated **
  Cycle:    386 Energy:      -394.530658  Gnorm:      0.013123  CPU:   12.340
  Cycle:    387 Energy:      -394.530683  Gnorm:      0.011412  CPU:   12.364
  Cycle:    388 Energy:      -394.530695  Gnorm:      0.009493  CPU:   12.392
  Cycle:    389 Energy:      -394.530705  Gnorm:      0.011777  CPU:   12.420
  Cycle:    390 Energy:      -394.530721  Gnorm:      0.010569  CPU:   12.444
  Cycle:    391 Energy:      -394.530739  Gnorm:      0.012977  CPU:   12.472
  Cycle:    392 Energy:      -394.530759  Gnorm:      0.011656  CPU:   12.500
  Cycle:    393 Energy:      -394.530770  Gnorm:      0.010284  CPU:   12.524
  Cycle:    394 Energy:      -394.530780  Gnorm:      0.010110  CPU:   12.552
  Cycle:    395 Energy:      -394.530798  Gnorm:      0.012459  CPU:   12.580
  ** Hessian calculated **
  Cycle:    396 Energy:      -394.530816  Gnorm:      0.012454  CPU:   12.636
  Cycle:    397 Energy:      -394.530917  Gnorm:      0.012427  CPU:   12.692
  Cycle:    398 Energy:      -394.531065  Gnorm:      0.012424  CPU:   12.736
  Cycle:    399 Energy:      -394.531125  Gnorm:      0.013033  CPU:   12.776
  ** Hessian calculated **
  Cycle:    400 Energy:      -394.531486  Gnorm:      0.012918  CPU:   12.860
  Cycle:    401 Energy:      -394.531733  Gnorm:      0.012961  CPU:   12.908
  Cycle:    402 Energy:      -394.532115  Gnorm:      0.014266  CPU:   12.944
  Cycle:    403 Energy:      -394.532764  Gnorm:      0.014740  CPU:   12.992
  Cycle:    404 Energy:      -394.533521  Gnorm:      0.018947  CPU:   13.032
  Cycle:    405 Energy:      -394.535033  Gnorm:      0.087500  CPU:   13.064
  Cycle:    406 Energy:      -394.535914  Gnorm:      0.082317  CPU:   13.096
  ** Hessian calculated **
  Cycle:    407 Energy:      -394.536516  Gnorm:      0.057631  CPU:   13.156
  Cycle:    408 Energy:      -394.536787  Gnorm:      0.038953  CPU:   13.180
  Cycle:    409 Energy:      -394.537021  Gnorm:      0.030473  CPU:   13.208
  Cycle:    410 Energy:      -394.537115  Gnorm:      0.022372  CPU:   13.232
  Cycle:    411 Energy:      -394.537189  Gnorm:      0.018979  CPU:   13.260
  Cycle:    412 Energy:      -394.537227  Gnorm:      0.015491  CPU:   13.288
  Cycle:    413 Energy:      -394.537251  Gnorm:      0.009741  CPU:   13.312
  Cycle:    414 Energy:      -394.537262  Gnorm:      0.009452  CPU:   13.340
  Cycle:    415 Energy:      -394.537271  Gnorm:      0.008446  CPU:   13.364
  Cycle:    416 Energy:      -394.537281  Gnorm:      0.008971  CPU:   13.388
  ** Hessian calculated **
  Cycle:    417 Energy:      -394.537292  Gnorm:      0.008968  CPU:   13.448
  Cycle:    418 Energy:      -394.537310  Gnorm:      0.008964  CPU:   13.476
  Cycle:    419 Energy:      -394.537407  Gnorm:      0.008970  CPU:   13.524
  Cycle:    420 Energy:      -394.537570  Gnorm:      0.009105  CPU:   13.572
  Cycle:    421 Energy:      -394.537773  Gnorm:      0.010245  CPU:   13.616
  ** Hessian calculated **
  Cycle:    422 Energy:      -394.537997  Gnorm:      0.010430  CPU:   13.700
  Cycle:    423 Energy:      -394.538257  Gnorm:      0.011641  CPU:   13.748
  ** Hessian calculated **
  Cycle:    424 Energy:      -394.538265  Gnorm:      0.006924  CPU:   13.808
  Cycle:    425 Energy:      -394.538271  Gnorm:      0.007091  CPU:   13.832
  Cycle:    426 Energy:      -394.538276  Gnorm:      0.006902  CPU:   13.860
  Cycle:    427 Energy:      -394.538283  Gnorm:      0.007178  CPU:   13.888
  Cycle:    428 Energy:      -394.538291  Gnorm:      0.008747  CPU:   13.916
  Cycle:    429 Energy:      -394.538309  Gnorm:      0.008090  CPU:   13.940
  Cycle:    430 Energy:      -394.538338  Gnorm:      0.009886  CPU:   13.976
  Cycle:    431 Energy:      -394.538362  Gnorm:      0.011819  CPU:   14.000
  Cycle:    432 Energy:      -394.538389  Gnorm:      0.013347  CPU:   14.028
  Cycle:    433 Energy:      -394.538418  Gnorm:      0.014310  CPU:   14.056
  ** Hessian calculated **
  Cycle:    434 Energy:      -394.538430  Gnorm:      0.011950  CPU:   14.112
  Cycle:    435 Energy:      -394.538454  Gnorm:      0.010908  CPU:   14.140
  Cycle:    436 Energy:      -394.538472  Gnorm:      0.010205  CPU:   14.168
  Cycle:    437 Energy:      -394.538488  Gnorm:      0.011771  CPU:   14.192
  Cycle:    438 Energy:      -394.538501  Gnorm:      0.011503  CPU:   14.220
  Cycle:    439 Energy:      -394.538515  Gnorm:      0.010107  CPU:   14.248
  Cycle:    440 Energy:      -394.538526  Gnorm:      0.009638  CPU:   14.272
  Cycle:    441 Energy:      -394.538539  Gnorm:      0.011803  CPU:   14.300
  Cycle:    442 Energy:      -394.538557  Gnorm:      0.013204  CPU:   14.328
  Cycle:    443 Energy:      -394.538582  Gnorm:      0.014310  CPU:   14.356
  ** Hessian calculated **
  Cycle:    444 Energy:      -394.538593  Gnorm:      0.007969  CPU:   14.412
  Cycle:    445 Energy:      -394.538599  Gnorm:      0.007695  CPU:   14.440
  Cycle:    446 Energy:      -394.538605  Gnorm:      0.006846  CPU:   14.464
  Cycle:    447 Energy:      -394.538611  Gnorm:      0.007621  CPU:   14.492
  Cycle:    448 Energy:      -394.538621  Gnorm:      0.006639  CPU:   14.520
  Cycle:    449 Energy:      -394.538627  Gnorm:      0.007098  CPU:   14.544
  Cycle:    450 Energy:      -394.538638  Gnorm:      0.008297  CPU:   14.572
  Cycle:    451 Energy:      -394.538653  Gnorm:      0.009604  CPU:   14.600
  Cycle:    452 Energy:      -394.538665  Gnorm:      0.011844  CPU:   14.628
  Cycle:    453 Energy:      -394.538683  Gnorm:      0.013577  CPU:   14.652
  ** Hessian calculated **
  Cycle:    454 Energy:      -394.538696  Gnorm:      0.010789  CPU:   14.712
  Cycle:    455 Energy:      -394.538709  Gnorm:      0.009843  CPU:   14.736
  Cycle:    456 Energy:      -394.538720  Gnorm:      0.006888  CPU:   14.764
  Cycle:    457 Energy:      -394.538729  Gnorm:      0.008772  CPU:   14.792
  Cycle:    458 Energy:      -394.538737  Gnorm:      0.007966  CPU:   14.816
  Cycle:    459 Energy:      -394.538745  Gnorm:      0.010040  CPU:   14.844
  Cycle:    460 Energy:      -394.538756  Gnorm:      0.007361  CPU:   14.872
  Cycle:    461 Energy:      -394.538762  Gnorm:      0.006570  CPU:   14.896
  Cycle:    462 Energy:      -394.538769  Gnorm:      0.008807  CPU:   14.924
  Cycle:    463 Energy:      -394.538780  Gnorm:      0.008589  CPU:   14.952
  ** Hessian calculated **
  Cycle:    464 Energy:      -394.538793  Gnorm:      0.008586  CPU:   15.008
  Cycle:    465 Energy:      -394.538862  Gnorm:      0.008575  CPU:   15.060
  Cycle:    466 Energy:      -394.538972  Gnorm:      0.008572  CPU:   15.112
  Cycle:    467 Energy:      -394.539138  Gnorm:      0.008718  CPU:   15.156
  ** Hessian calculated **
  Cycle:    468 Energy:      -394.539388  Gnorm:      0.008837  CPU:   15.240
  Cycle:    469 Energy:      -394.539648  Gnorm:      0.009801  CPU:   15.284
  ** Hessian calculated **
  Cycle:    470 Energy:      -394.539654  Gnorm:      0.006948  CPU:   15.340
  Cycle:    471 Energy:      -394.539659  Gnorm:      0.006178  CPU:   15.368
  Cycle:    472 Energy:      -394.539665  Gnorm:      0.007400  CPU:   15.396
  Cycle:    473 Energy:      -394.539672  Gnorm:      0.007433  CPU:   15.420
  Cycle:    474 Energy:      -394.539679  Gnorm:      0.008671  CPU:   15.448
  Cycle:    475 Energy:      -394.539688  Gnorm:      0.008398  CPU:   15.472
  Cycle:    476 Energy:      -394.539698  Gnorm:      0.009366  CPU:   15.500
  Cycle:    477 Energy:      -394.539708  Gnorm:      0.010241  CPU:   15.524
  Cycle:    478 Energy:      -394.539719  Gnorm:      0.010573  CPU:   15.552
  Cycle:    479 Energy:      -394.539733  Gnorm:      0.013684  CPU:   15.576
  ** Hessian calculated **
  Cycle:    480 Energy:      -394.539743  Gnorm:      0.010013  CPU:   15.636
  Cycle:    481 Energy:      -394.539754  Gnorm:      0.010523  CPU:   15.660
  Cycle:    482 Energy:      -394.539764  Gnorm:      0.009072  CPU:   15.688
  Cycle:    483 Energy:      -394.539773  Gnorm:      0.008700  CPU:   15.712
  Cycle:    484 Energy:      -394.539783  Gnorm:      0.008447  CPU:   15.740
  Cycle:    485 Energy:      -394.539790  Gnorm:      0.008013  CPU:   15.764
  Cycle:    486 Energy:      -394.539798  Gnorm:      0.007684  CPU:   15.792
  Cycle:    487 Energy:      -394.539803  Gnorm:      0.006727  CPU:   15.816
  Cycle:    488 Energy:      -394.539809  Gnorm:      0.007027  CPU:   15.844
  Cycle:    489 Energy:      -394.539815  Gnorm:      0.008539  CPU:   15.868
  ** Hessian calculated **
  Cycle:    490 Energy:      -394.539822  Gnorm:      0.008537  CPU:   15.928
  Cycle:    491 Energy:      -394.539832  Gnorm:      0.008538  CPU:   15.952
  Cycle:    492 Energy:      -394.539841  Gnorm:      0.008550  CPU:   15.980
  ** Hessian calculated **
  Cycle:    493 Energy:      -394.539846  Gnorm:      0.006554  CPU:   16.040
  Cycle:    494 Energy:      -394.539852  Gnorm:      0.006479  CPU:   16.064
  Cycle:    495 Energy:      -394.539857  Gnorm:      0.007185  CPU:   16.092
  Cycle:    496 Energy:      -394.539864  Gnorm:      0.007855  CPU:   16.116
  Cycle:    497 Energy:      -394.539871  Gnorm:      0.008311  CPU:   16.144
  Cycle:    498 Energy:      -394.539880  Gnorm:      0.008417  CPU:   16.168
  Cycle:    499 Energy:      -394.539889  Gnorm:      0.009388  CPU:   16.196
  Cycle:    500 Energy:      -394.539899  Gnorm:      0.010326  CPU:   16.220
  Cycle:    501 Energy:      -394.539910  Gnorm:      0.010102  CPU:   16.248
  Cycle:    502 Energy:      -394.539921  Gnorm:      0.012917  CPU:   16.272
  ** Hessian calculated **
  Cycle:    503 Energy:      -394.540023  Gnorm:      0.012883  CPU:   16.356
  Cycle:    504 Energy:      -394.540214  Gnorm:      0.012918  CPU:   16.400
  Cycle:    505 Energy:      -394.540506  Gnorm:      0.013503  CPU:   16.444
  Cycle:    506 Energy:      -394.540723  Gnorm:      0.014276  CPU:   16.484
  ** Hessian calculated **
  Cycle:    507 Energy:      -394.540735  Gnorm:      0.009218  CPU:   16.540
  Cycle:    508 Energy:      -394.540745  Gnorm:      0.009655  CPU:   16.568
  Cycle:    509 Energy:      -394.540755  Gnorm:      0.009362  CPU:   16.592
  Cycle:    510 Energy:      -394.540762  Gnorm:      0.008337  CPU:   16.620
  Cycle:    511 Energy:      -394.540771  Gnorm:      0.007611  CPU:   16.644
  Cycle:    512 Energy:      -394.540779  Gnorm:      0.007509  CPU:   16.672
  Cycle:    513 Energy:      -394.540785  Gnorm:      0.007453  CPU:   16.700
  Cycle:    514 Energy:      -394.540792  Gnorm:      0.006469  CPU:   16.724
  Cycle:    515 Energy:      -394.540796  Gnorm:      0.006164  CPU:   16.752
  Cycle:    516 Energy:      -394.540802  Gnorm:      0.009107  CPU:   16.780
  ** Hessian calculated **
  Cycle:    517 Energy:      -394.540810  Gnorm:      0.009104  CPU:   16.836
  Cycle:    518 Energy:      -394.540823  Gnorm:      0.009099  CPU:   16.864
  Cycle:    519 Energy:      -394.540893  Gnorm:      0.009094  CPU:   16.912
  Cycle:    520 Energy:      -394.541018  Gnorm:      0.009205  CPU:   16.956
  Cycle:    521 Energy:      -394.541110  Gnorm:      0.009937  CPU:   16.996
  ** Hessian calculated **
  Cycle:    522 Energy:      -394.541116  Gnorm:      0.006548  CPU:   17.056
  Cycle:    523 Energy:      -394.541120  Gnorm:      0.006143  CPU:   17.080
  Cycle:    524 Energy:      -394.541125  Gnorm:      0.006745  CPU:   17.108
  Cycle:    525 Energy:      -394.541130  Gnorm:      0.006485  CPU:   17.136
  Cycle:    526 Energy:      -394.541137  Gnorm:      0.007127  CPU:   17.160
  Cycle:    527 Energy:      -394.541144  Gnorm:      0.008330  CPU:   17.188
  Cycle:    528 Energy:      -394.541153  Gnorm:      0.009676  CPU:   17.212
  Cycle:    529 Energy:      -394.541162  Gnorm:      0.009882  CPU:   17.240
  Cycle:    530 Energy:      -394.541172  Gnorm:      0.009343  CPU:   17.264
  Cycle:    531 Energy:      -394.541182  Gnorm:      0.011279  CPU:   17.292
  ** Hessian calculated **
  Cycle:    532 Energy:      -394.541190  Gnorm:      0.008938  CPU:   17.348
  Cycle:    533 Energy:      -394.541200  Gnorm:      0.009160  CPU:   17.372
  Cycle:    534 Energy:      -394.541208  Gnorm:      0.009047  CPU:   17.400
  Cycle:    535 Energy:      -394.541217  Gnorm:      0.008036  CPU:   17.428
  Cycle:    536 Energy:      -394.541225  Gnorm:      0.007675  CPU:   17.452
  Cycle:    537 Energy:      -394.541231  Gnorm:      0.006850  CPU:   17.480
  Cycle:    538 Energy:      -394.541236  Gnorm:      0.006877  CPU:   17.508
  Cycle:    539 Energy:      -394.541243  Gnorm:      0.006361  CPU:   17.532
  Cycle:    540 Energy:      -394.541247  Gnorm:      0.006396  CPU:   17.560
  Cycle:    541 Energy:      -394.541253  Gnorm:      0.009936  CPU:   17.584
  ** Hessian calculated **
  Cycle:    542 Energy:      -394.541258  Gnorm:      0.006254  CPU:   17.644
  Cycle:    543 Energy:      -394.541262  Gnorm:      0.006061  CPU:   17.668
  Cycle:    544 Energy:      -394.541268  Gnorm:      0.005840  CPU:   17.692
  Cycle:    545 Energy:      -394.541273  Gnorm:      0.006547  CPU:   17.720
  Cycle:    546 Energy:      -394.541279  Gnorm:      0.007608  CPU:   17.748
  Cycle:    547 Energy:      -394.541287  Gnorm:      0.007920  CPU:   17.772
  Cycle:    548 Energy:      -394.541296  Gnorm:      0.008877  CPU:   17.800
  Cycle:    549 Energy:      -394.541304  Gnorm:      0.009484  CPU:   17.824
  Cycle:    550 Energy:      -394.541314  Gnorm:      0.009062  CPU:   17.852
  Cycle:    551 Energy:      -394.541322  Gnorm:      0.011030  CPU:   17.880
  ** Hessian calculated **
  Cycle:    552 Energy:      -394.541330  Gnorm:      0.008659  CPU:   17.936
  Cycle:    553 Energy:      -394.541339  Gnorm:      0.009430  CPU:   17.964
  Cycle:    554 Energy:      -394.541348  Gnorm:      0.008818  CPU:   17.988
  Cycle:    555 Energy:      -394.541357  Gnorm:      0.008272  CPU:   18.016
  Cycle:    556 Energy:      -394.541364  Gnorm:      0.007508  CPU:   18.040
  Cycle:    557 Energy:      -394.541371  Gnorm:      0.006429  CPU:   18.068
  Cycle:    558 Energy:      -394.541376  Gnorm:      0.006759  CPU:   18.096
  Cycle:    559 Energy:      -394.541382  Gnorm:      0.006175  CPU:   18.120
  Cycle:    560 Energy:      -394.541385  Gnorm:      0.006067  CPU:   18.148
  Cycle:    561 Energy:      -394.541392  Gnorm:      0.009140  CPU:   18.176
  ** Hessian calculated **
  Cycle:    562 Energy:      -394.541397  Gnorm:      0.005726  CPU:   18.236
  Cycle:    563 Energy:      -394.541401  Gnorm:      0.006275  CPU:   18.260
  Cycle:    564 Energy:      -394.541406  Gnorm:      0.006363  CPU:   18.288
  Cycle:    565 Energy:      -394.541411  Gnorm:      0.006429  CPU:   18.316
  Cycle:    566 Energy:      -394.541418  Gnorm:      0.008043  CPU:   18.340
  Cycle:    567 Energy:      -394.541425  Gnorm:      0.008525  CPU:   18.368
  Cycle:    568 Energy:      -394.541435  Gnorm:      0.008844  CPU:   18.392
  Cycle:    569 Energy:      -394.541442  Gnorm:      0.009362  CPU:   18.420
  Cycle:    570 Energy:      -394.541454  Gnorm:      0.008537  CPU:   18.448
  Cycle:    571 Energy:      -394.541462  Gnorm:      0.013314  CPU:   18.472
  ** Hessian calculated **
  Cycle:    572 Energy:      -394.541470  Gnorm:      0.008458  CPU:   18.532
  Cycle:    573 Energy:      -394.541481  Gnorm:      0.008197  CPU:   18.560
  Cycle:    574 Energy:      -394.541489  Gnorm:      0.008789  CPU:   18.588
  Cycle:    575 Energy:      -394.541498  Gnorm:      0.008634  CPU:   18.612
  Cycle:    576 Energy:      -394.541506  Gnorm:      0.008616  CPU:   18.640
  Cycle:    577 Energy:      -394.541513  Gnorm:      0.006243  CPU:   18.664
  Cycle:    578 Energy:      -394.541517  Gnorm:      0.006964  CPU:   18.692
  Cycle:    579 Energy:      -394.541524  Gnorm:      0.006207  CPU:   18.716
  Cycle:    580 Energy:      -394.541527  Gnorm:      0.005724  CPU:   18.744
  Cycle:    581 Energy:      -394.541533  Gnorm:      0.009079  CPU:   18.772
  ** Hessian calculated **
  Cycle:    582 Energy:      -394.541537  Gnorm:      0.005699  CPU:   18.828
  Cycle:    583 Energy:      -394.541541  Gnorm:      0.006554  CPU:   18.856
  Cycle:    584 Energy:      -394.541547  Gnorm:      0.006208  CPU:   18.884
  Cycle:    585 Energy:      -394.541551  Gnorm:      0.006747  CPU:   18.908
  Cycle:    586 Energy:      -394.541558  Gnorm:      0.007030  CPU:   18.936
  Cycle:    587 Energy:      -394.541564  Gnorm:      0.007672  CPU:   18.960
  Cycle:    588 Energy:      -394.541573  Gnorm:      0.008379  CPU:   18.988
  Cycle:    589 Energy:      -394.541582  Gnorm:      0.009157  CPU:   19.012
  Cycle:    590 Energy:      -394.541591  Gnorm:      0.008256  CPU:   19.040
  Cycle:    591 Energy:      -394.541600  Gnorm:      0.012123  CPU:   19.068
  ** Hessian calculated **
  Cycle:    592 Energy:      -394.541714  Gnorm:      0.012053  CPU:   19.148
  Cycle:    593 Energy:      -394.541886  Gnorm:      0.011965  CPU:   19.196
  Cycle:    594 Energy:      -394.542008  Gnorm:      0.011904  CPU:   19.240
  Cycle:    595 Energy:      -394.542029  Gnorm:      0.011876  CPU:   19.268
  ** Hessian calculated **
  Cycle:    596 Energy:      -394.542403  Gnorm:      0.012104  CPU:   19.352
  Cycle:    597 Energy:      -394.542877  Gnorm:      0.014969  CPU:   19.388
  Cycle:    598 Energy:      -394.543163  Gnorm:      0.017981  CPU:   19.436
  Cycle:    599 Energy:      -394.543454  Gnorm:      0.025442  CPU:   19.476
  ** Hessian calculated **
  Cycle:    600 Energy:      -394.543502  Gnorm:      0.017519  CPU:   19.536
  Cycle:    601 Energy:      -394.543530  Gnorm:      0.013036  CPU:   19.560
  Cycle:    602 Energy:      -394.543548  Gnorm:      0.010991  CPU:   19.588
  Cycle:    603 Energy:      -394.543559  Gnorm:      0.008278  CPU:   19.616
  Cycle:    604 Energy:      -394.543566  Gnorm:      0.006576  CPU:   19.644
  Cycle:    605 Energy:      -394.543572  Gnorm:      0.006742  CPU:   19.668
  Cycle:    606 Energy:      -394.543576  Gnorm:      0.005842  CPU:   19.692
  Cycle:    607 Energy:      -394.543581  Gnorm:      0.005992  CPU:   19.720
  Cycle:    608 Energy:      -394.543585  Gnorm:      0.006112  CPU:   19.744
  Cycle:    609 Energy:      -394.543591  Gnorm:      0.007236  CPU:   19.772
  ** Hessian calculated **
  Cycle:    610 Energy:      -394.543605  Gnorm:      0.007231  CPU:   19.832
  Cycle:    611 Energy:      -394.543687  Gnorm:      0.007207  CPU:   19.884
  Cycle:    612 Energy:      -394.543816  Gnorm:      0.007207  CPU:   19.928
  Cycle:    613 Energy:      -394.543998  Gnorm:      0.007469  CPU:   19.972
  Cycle:    614 Energy:      -394.544111  Gnorm:      0.008113  CPU:   20.008
  Cycle:    615 Energy:      -394.544171  Gnorm:      0.009214  CPU:   20.056
  ** Hessian calculated **
  Cycle:    616 Energy:      -394.544176  Gnorm:      0.005173  CPU:   20.112
  Cycle:    617 Energy:      -394.544179  Gnorm:      0.004574  CPU:   20.140
  Cycle:    618 Energy:      -394.544182  Gnorm:      0.004907  CPU:   20.168
  Cycle:    619 Energy:      -394.544186  Gnorm:      0.004824  CPU:   20.192
  Cycle:    620 Energy:      -394.544188  Gnorm:      0.005437  CPU:   20.220
  Cycle:    621 Energy:      -394.544194  Gnorm:      0.005136  CPU:   20.244
  Cycle:    622 Energy:      -394.544201  Gnorm:      0.005835  CPU:   20.272
  Cycle:    623 Energy:      -394.544210  Gnorm:      0.006919  CPU:   20.296
  Cycle:    624 Energy:      -394.544222  Gnorm:      0.008230  CPU:   20.320
  Cycle:    625 Energy:      -394.544236  Gnorm:      0.010055  CPU:   20.348
  ** Hessian calculated **
  Cycle:    626 Energy:      -394.544378  Gnorm:      0.010030  CPU:   20.432
  Cycle:    627 Energy:      -394.544570  Gnorm:      0.010378  CPU:   20.476
  Cycle:    628 Energy:      -394.544647  Gnorm:      0.011678  CPU:   20.512
  ** Hessian calculated **
  Cycle:    629 Energy:      -394.544963  Gnorm:      0.011969  CPU:   20.596
  Cycle:    630 Energy:      -394.545414  Gnorm:      0.014847  CPU:   20.636
  Cycle:    631 Energy:      -394.546025  Gnorm:      0.022364  CPU:   20.676
  Cycle:    632 Energy:      -394.546645  Gnorm:      0.046501  CPU:   20.704
  ** Hessian calculated **
  Cycle:    633 Energy:      -394.546822  Gnorm:      0.025284  CPU:   20.764
  Cycle:    634 Energy:      -394.546866  Gnorm:      0.014380  CPU:   20.788
  Cycle:    635 Energy:      -394.546897  Gnorm:      0.012680  CPU:   20.816
  Cycle:    636 Energy:      -394.546920  Gnorm:      0.012483  CPU:   20.844
  Cycle:    637 Energy:      -394.546935  Gnorm:      0.010033  CPU:   20.868
  Cycle:    638 Energy:      -394.546945  Gnorm:      0.007833  CPU:   20.892
  Cycle:    639 Energy:      -394.546951  Gnorm:      0.006688  CPU:   20.920
  Cycle:    640 Energy:      -394.546957  Gnorm:      0.005065  CPU:   20.944
  Cycle:    641 Energy:      -394.546959  Gnorm:      0.004127  CPU:   20.972
  Cycle:    642 Energy:      -394.546962  Gnorm:      0.004470  CPU:   20.996
  ** Hessian calculated **
  Cycle:    643 Energy:      -394.546963  Gnorm:      0.003053  CPU:   21.056
  Cycle:    644 Energy:      -394.546965  Gnorm:      0.004190  CPU:   21.080
  Cycle:    645 Energy:      -394.546968  Gnorm:      0.003797  CPU:   21.104
  Cycle:    646 Energy:      -394.546971  Gnorm:      0.004551  CPU:   21.132
  Cycle:    647 Energy:      -394.546976  Gnorm:      0.005305  CPU:   21.156
  Cycle:    648 Energy:      -394.546982  Gnorm:      0.005674  CPU:   21.184
  Cycle:    649 Energy:      -394.546989  Gnorm:      0.007107  CPU:   21.208
  Cycle:    650 Energy:      -394.547001  Gnorm:      0.008508  CPU:   21.236
  Cycle:    651 Energy:      -394.547013  Gnorm:      0.011615  CPU:   21.260
  Cycle:    652 Energy:      -394.547032  Gnorm:      0.014406  CPU:   21.284
  ** Hessian calculated **
  Cycle:    653 Energy:      -394.547044  Gnorm:      0.009314  CPU:   21.344
  Cycle:    654 Energy:      -394.547055  Gnorm:      0.008964  CPU:   21.368
  Cycle:    655 Energy:      -394.547062  Gnorm:      0.005554  CPU:   21.396
  Cycle:    656 Energy:      -394.547066  Gnorm:      0.006163  CPU:   21.420
  Cycle:    657 Energy:      -394.547070  Gnorm:      0.005548  CPU:   21.448
  Cycle:    658 Energy:      -394.547075  Gnorm:      0.006547  CPU:   21.476
  Cycle:    659 Energy:      -394.547081  Gnorm:      0.006296  CPU:   21.500
  Cycle:    660 Energy:      -394.547084  Gnorm:      0.004216  CPU:   21.528
  Cycle:    661 Energy:      -394.547087  Gnorm:      0.006396  CPU:   21.552
  Cycle:    662 Energy:      -394.547093  Gnorm:      0.005832  CPU:   21.580
  ** Hessian calculated **
  Cycle:    663 Energy:      -394.547096  Gnorm:      0.003926  CPU:   21.636
  Cycle:    664 Energy:      -394.547098  Gnorm:      0.004746  CPU:   21.664
  Cycle:    665 Energy:      -394.547101  Gnorm:      0.004557  CPU:   21.688
  Cycle:    666 Energy:      -394.547105  Gnorm:      0.004838  CPU:   21.716
  Cycle:    667 Energy:      -394.547108  Gnorm:      0.004492  CPU:   21.740
  Cycle:    668 Energy:      -394.547110  Gnorm:      0.004654  CPU:   21.768
  Cycle:    669 Energy:      -394.547114  Gnorm:      0.005660  CPU:   21.792
  Cycle:    670 Energy:      -394.547120  Gnorm:      0.005668  CPU:   21.820
  Cycle:    671 Energy:      -394.547127  Gnorm:      0.007844  CPU:   21.844
  Cycle:    672 Energy:      -394.547138  Gnorm:      0.008806  CPU:   21.872
  ** Hessian calculated **
  Cycle:    673 Energy:      -394.547210  Gnorm:      0.008761  CPU:   21.952
  Cycle:    674 Energy:      -394.547320  Gnorm:      0.008807  CPU:   21.996
  Cycle:    675 Energy:      -394.547457  Gnorm:      0.009126  CPU:   22.040
  Cycle:    676 Energy:      -394.547536  Gnorm:      0.009722  CPU:   22.080
  ** Hessian calculated **
  Cycle:    677 Energy:      -394.547544  Gnorm:      0.008280  CPU:   22.136
  Cycle:    678 Energy:      -394.547553  Gnorm:      0.007293  CPU:   22.164
  Cycle:    679 Energy:      -394.547557  Gnorm:      0.004267  CPU:   22.188
  Cycle:    680 Energy:      -394.547560  Gnorm:      0.004322  CPU:   22.216
[...]
    48      449.2530                  0.00000001786222
    49      450.1886                  0.00000011614200
    50      451.3297                  0.00000016778869
    51      451.4400                  0.00000028289324
    52      452.5383                  0.00000059712533
    53      457.3111                  0.00000051152313
    54      458.4626                  0.00000042259826
    55      460.1506                  0.00000004072182
    56      484.9588                  0.00000000000000
    57      495.6376                  0.00000291336498
    58      501.4730                  0.00007140479451
    59      509.1053                  0.00006800913841
    60      511.5116                  0.00000023270563
    61      514.0142                  0.00000054608509
    62      516.7094                  0.00000116695595
    63      522.9314                  0.00000018302843
    64      526.0728                  0.00000007239416
    65      534.8146                  0.00000000000000
    66      546.4607                  0.00004496639208
    67      549.9789                  0.00004439293562
    68      568.4377                  0.00000000000000
    69      617.8870                  0.00000174105775
    70      620.3598                  0.00000004345403
    71      625.4096                  0.00000227813830
    72      632.1369                  0.00002774240261
    73      635.4340                  0.00000013417806
    74      636.9621                  0.00002450357512
    75      637.2912                  0.00000211585202
    76      647.5484                  0.00000000000000
    77      658.3070                  0.00000045381326
    78      658.6673                  0.00000043569115
    79      659.4346                  0.00000005100985
    80      673.3359                  0.00000000000000
    81      704.1877                  0.00000063764606
    82      705.6019                  0.00000063064944
    83      708.3168                  0.00005505307483
    84      716.4828                  0.00006701093328
    85      719.6523                  0.00000013991246
    86      720.8413                  0.00000052783420
    87      721.8524                  0.00001259894417
    88      722.1766                  0.00002104720617
    89      729.6641                  0.00010753367226
    90      733.3850                  0.00008905354450
    91      739.4926                  0.00000045394938
    92      740.9621                  0.00000100014292
    93      742.3214                  0.00000003975165
    94      750.7409                  0.00000085917375
    95      750.7938                  0.00000084992176
    96      752.8518                  0.00000220347708
    97      759.2997                  0.00000068351154
    98      761.7185                  0.00000121739578
    99      762.6913                  0.00000974197327
   100      765.4747                  0.00000521468747
   101      769.3930                  0.00001102656699
   102      790.1219                  0.00000015419759
   103      797.6301                  0.00000021378837
   104      798.5014                  0.00000064969319
   105      799.6031                  0.00000005414283
   106      800.1802                  0.00000065970638
   107      819.6700                  0.00000006392767
   108      822.8504                  0.00000006343445
   109      845.3482                  0.00000046141717
   110      847.4882                  0.00000092311205
   111      852.5138                  0.00000036632234
   112      855.5059                  0.00000193804035
   113      857.7925                  0.00000035972095
   114      861.3018                  0.00000193175350
   115      867.5756                  0.00000031144981
   116      872.8798                  0.00000057004505
   117      878.4957                  0.00003003848969
   118      880.3212                  0.00002970266013
   119      892.5861                  0.00000000000000
   120      908.4753                  0.00000000000000
   121      923.6454                  0.00000161365498
   122      929.9609                  0.00006018174237
   123      931.6389                  0.00001094924863
   124      932.5611                  0.00006130130221
   125      935.3755                  0.00000377920877
   126      937.6164                  0.00000021975920
   127      941.7539                  0.00000343456603
   128      947.4483                  0.00000084443595
   129      948.0008                  0.00000253985999
   130      950.9549                  0.00000107849612
   131      951.4033                  0.00000035329754
   132      973.5837                  0.00000228948797
   133      977.1849                  0.00000013161811
   134      980.3870                  0.00000216637229
   135      989.1999                  0.00000395622130
   136      990.7853                  0.00000398892703
   137      994.3156                  0.00000026819785
   138     1005.3648                  0.00000000000000
   139     1013.9029                  0.00000000000000
   140     1028.0073                  0.00000000000000
   141     1036.6265                  0.00000000000000
   142     1055.6136                  0.00000000000000
   143     1067.3100                  0.00000000000000
   144     1076.3206                  0.00000000001084
   145     1083.7677                  0.00000000001069
   146     1092.4895                  0.00000000357218
   147     1094.1738                  0.00000018056937
   148     1100.8009                  0.00000029956534
   149     1102.6430                  0.00000001641865
   150     1104.1056                  0.00000010945751
   151     1114.0586                  0.00000109639135
   152     1118.2390                  0.00000158918480
   153     1119.4612                  0.00000076244362
   154     1120.6000                  0.00000195307893
   155     1125.4825                  0.00000365375590
   156     1130.8432                  0.00000232185548
   157     1138.3296                  0.00000065005032
   158     1138.8504                  0.00000059125490
   159     1150.2128                  0.00000031781398
   160     1155.6025                  0.00000052758162
   161     1162.5120                  0.00000021020415
   162     1171.5191                  0.00000000000000
   163     1181.0227                  0.00000000000000
   164     1218.0463                  0.00000011352141
   165     1221.3221                  0.00000004635089
   166     1224.6264                  0.00000003159454
   167     1225.5054                  0.00000007916036
   168     1256.0687                  0.00000188093542
   169     1263.0255                  0.00000295228713
   170     1265.8302                  0.00000108322758
   171     1265.9499                  0.00000001034960
   172     1285.0186                  0.00001489612820
   173     1292.1669                  0.00001473177105
   174     1304.4616                  0.00000344976132
   175     1307.7122                  0.00000081675853
   176     1308.1700                  0.00000295007413
   177     1317.4972                  0.00000021415330
   178     1325.0857                  0.00000021170748
   179     1337.8285                  0.00000000000000
   180     1360.6736                  0.00001000358799
   181     1365.5136                  0.00000993279948
   182     1384.3135                  0.00009734604576
   183     1387.6755                  0.00002080112444
   184     1387.9174                  0.00004717766600
   185     1388.5571                  0.00003822592301
   186     1390.7126                  0.00008945239264
   187     1391.2915                  0.00004339032671
   188     1391.8892                  0.00004781998522
   189     1394.5070                  0.00003645906667
   190     1395.7923                  0.00007633197943
   191     1402.9119                  0.00000797919069
   192     1414.7983                  0.00000000000000
   193     1455.3030                  0.00000005181556
   194     1457.9691                  0.00000005162624
   195     1507.0288                  0.00000000000000
   196     1542.6764                  0.00000000000000
   197     1552.5645                  0.00000012989099
   198     1553.6766                  0.00000051608290
   199     1556.3048                  0.00000404765628
   200     1558.2569                  0.00000790105002
   201     1561.9301                  0.00001135898435
   202     1581.2769                  0.00000056580219
   203     1584.1180                  0.00000021940355
   204     1584.7609                  0.00000018338833
   205     1585.1567                  0.00000048425908
   206     1595.7047                  0.00007320734719
   207     1598.9222                  0.00004808891493
   208     1599.9360                  0.00005287252340
   209     1606.7153                  0.00002841728926
   210     1614.0369                  0.00000143811521
   211     1614.8211                  0.00000069529807
   212     1618.0702                  0.00000155148277
   213     1623.5366                  0.00000000062556
   214     1637.7317                  0.00004462412073
   215     1639.1350                  0.00004454774565
   216     1648.4717                  0.00000000129505
   217     1648.6754                  0.00000000129473
   218     1681.7641                  0.00000000000000
   219     1702.4253                  0.00000000000000
   220     1724.6411                  0.00000000000000
   221     1759.5838                  0.00000000000000
   222     1801.9218                  0.00000147520882
   223     1802.0051                  0.00000149720780
   224     1808.6277                  0.00000295049532
   225     1826.9298                  0.00000531217273
   226     1827.6105                  0.00000576981153
   227     1827.8431                  0.00002571349052
   228     1829.7335                  0.00003296099094
   229     1830.3577                  0.00002779347656
   230     1837.2581                  0.00003654179318
   231     1837.3841                  0.00003022462460
   232     1844.8443                  0.00003770778034
   233     1899.2357                  0.00000041445942
   234     1899.5711                  0.00000011107652
   235     1899.8721                  0.00000003414980
   236     1901.4782                  0.00000052937983
   237     1913.0020                  0.00000334896070
   238     1913.4886                  0.00001873548906
   239     1915.0600                  0.00001358275890
   240     1915.1855                  0.00001794510077
   241     1917.7796                  0.00003060540072
   242     1918.0928                  0.00001007487717
   243     1919.5174                  0.00003013534536
   244     1920.6752                  0.00002565342524
   245     1921.7571                  0.00004880137052
   246     1924.5013                  0.00002843589543
   247     1927.0225                  0.00000534505823
   248     1928.9951                  0.00001187668584
   249     1951.9434                  0.00000000000000
   250     1972.5278                  0.00000000000000
   251     2868.6240                  0.00000000000000
   252     2908.0374                  0.00002108863329
   253     2911.3693                  0.00001168252334
   254     2915.1628                  0.00001949380950
   255     2971.4911                  0.00001876345205
   256     2974.3717                  0.00001328667127
   257     2976.8101                  0.00001765866696
   258     2977.0325                  0.00000125619459
   259     2977.8430                  0.00000034261997
   260     3061.0162                  0.00000815909288
   261     3061.7311                  0.00000830367032
   262     3062.2295                  0.00001066512114
   263     3062.7305                  0.00000689611070
   264     3063.3639                  0.00000954249092
--------------------------------------------------------------------------------
  Thermal conductivity =     0.000477 W/(m.K) 
--------------------------------------------------------------------------------

--------------------------------------------------------------------------------
  Phonon properties (per mole of unit cells): Temperature =  50000.000 K
--------------------------------------------------------------------------------
  Zero point energy            =       17.736433 eV
  Entropy                      =        0.104329 eV/K
                               =    10066.115618 J/(mol.K)
  Helmholtz free-energy        =    -4503.527633 eV
                               =  -434521.535896 kJmol-1
  Free energy (equipartition)  =    -4503.592910 eV
  - T*S       (equipartition)  =    -5216.365456 eV
  Uvib        (equipartition)  =     1107.327691 eV
  Mean kinetic energy          =      568.809459 eV
  Heat capacity - const volume =        0.022144 eV/K
                               =     2136.551822 J/(mol.K)
--------------------------------------------------------------------------------

  Phonon density of states : 

--------------------------------------------------------------------------------
 Frequency (cm-1) Density of States                                             
--------------------------------------------------------------------------------
    0.00000 |*********************************                             0.035
   47.86506 |***                                                           0.004
   95.73012 |***********                                                   0.012
  143.59519 |***********                                                   0.012
  191.46025 |*******                                                       0.008
  239.32531 |**************************                                    0.027
  287.19037 |***********                                                   0.012
  335.05544 |**************************                                    0.027
  382.92050 |***********                                                   0.012
  430.78556 |************************************************              0.050
  478.65062 |*********************************                             0.035
  526.51569 |***************                                               0.015
  574.38075 |*******                                                       0.008
  622.24581 |*********************************                             0.035
  670.11087 |******************                                            0.019
  717.97594 |************************************************************  0.062
  765.84100 |**********************                                        0.023
  813.70606 |******************************                                0.031
  861.57112 |**********************                                        0.023
  909.43619 |*****************************************                     0.042
  957.30125 |**********************                                        0.023
 1005.16631 |***************                                               0.015
 1053.03137 |**************************                                    0.027
 1100.89644 |*************************************                         0.038
 1148.76150 |******************                                            0.019
 1196.62656 |***************                                               0.015
 1244.49162 |**********************                                        0.023
 1292.35669 |**********************                                        0.023
 1340.22175 |******************                                            0.019
 1388.08681 |******************************                                0.031
 1435.95187 |*******                                                       0.008
 1483.81694 |***                                                           0.004
 1531.68200 |**********************                                        0.023
 1579.54706 |*********************************************                 0.046
 1627.41212 |***************                                               0.015
 1675.27719 |*******                                                       0.008
 1723.14225 |*******                                                       0.008
 1771.00731 |***********                                                   0.012
 1818.87237 |******************************                                0.031
 1866.73744 |**********************                                        0.023
 1914.60250 |*****************************************                     0.042
 1962.46756 |***                                                           0.004
 2010.33262 |                                                              0.000
 2058.19769 |                                                              0.000
 2106.06275 |                                                              0.000
 2153.92781 |                                                              0.000
 2201.79287 |                                                              0.000
 2249.65794 |                                                              0.000
 2297.52300 |                                                              0.000
 2345.38806 |                                                              0.000
 2393.25312 |                                                              0.000
 2441.11819 |                                                              0.000
 2488.98325 |                                                              0.000
 2536.84831 |                                                              0.000
 2584.71337 |                                                              0.000
 2632.57844 |                                                              0.000
 2680.44350 |                                                              0.000
 2728.30856 |                                                              0.000
 2776.17362 |                                                              0.000
 2824.03869 |***                                                           0.004
 2871.90375 |***********                                                   0.012
 2919.76881 |                                                              0.000
 2967.63387 |******************                                            0.019
 3015.49894 |******************                                            0.019
--------------------------------------------------------------------------------



  Time to end of optimisation =      89.4440 seconds


  Peak dynamic memory used =       2.18 MB 


  Timing analysis for GULP :

--------------------------------------------------------------------------------
  Task / Subroutine                                          Time (Seconds)
--------------------------------------------------------------------------------
  Calculation of real space energy and derivatives               14.3920
  Calculation of three-body energy and derivatives               14.9760
  Calculation of four-body energy and derivatives                 7.9040
  Calculation of Bond Order energy and derivatives               19.8560
  Calculation of molecules and connectivity                      21.1400
  Calculation of phonons                                          0.7440
  Calculation of scattering                                       0.0000
  Calculation of matrix inversion                                 7.4880
  Global summation overhead                                       0.0120
--------------------------------------------------------------------------------
  Total CPU time                                                 89.4440
--------------------------------------------------------------------------------


  LAMMPS file written on channel 26


  Job Finished at 13:29.12  8th July       2013                               

