ITEM: TIMESTEP
356
ITEM: NUMBER OF ATOMS
256
ITEM: BOX BOUNDS
0 6.3299
0 6.3299
0 6.3299
ITEM: ATOMS fx fy fz 
-0.000602322 -0.000135012 0.00147819 
0.000971218 -0.000164928 0.00048103 
0.00147235 -0.00115637 -0.000331085 
0.000318997 0.000174937 -0.000158636 
0.000634391 0.000809139 -8.03221e-05 
-0.000210126 -0.00300571 0.000357068 
0.000347389 0.000406603 0.000319692 
-0.000931065 0.00192699 0.000869109 
-9.18806e-06 -0.00193078 7.43204e-05 
0.000105666 -0.000150889 -0.000120162 
0.000854651 5.21321e-05 -0.00021011 
-0.000415531 -0.00191084 0.00113061 
-0.000308773 0.000463639 -0.00245076 
-0.000518101 0.000223802 0.00121711 
0.000310304 0.000142461 -0.000359223 
-0.000215233 0.0021773 0.00279242 
-0.00189319 0.00159401 0.00211979 
-0.00211581 0.000708488 0.00445836 
-0.000953 0.00123057 -0.0012412 
0.00299648 -0.00100671 0.00086702 
0.000727305 0.000834709 0.000200313 
-0.000767596 0.00211612 0.00016849 
-0.000513288 0.000139478 -0.000422717 
0.0012904 -0.000336184 0.000128761 
0.000118712 0.000860585 -0.000238911 
0.000184253 0.00103857 -0.00018333 
0.0012658 0.00185992 8.62043e-05 
0.000529035 -4.42574e-05 0.000156022 
-0.00119401 0.00105984 0.000352773 
0.000712604 0.000164981 -0.00137239 
-0.000266885 0.00160468 -0.000561007 
-0.00113192 0.00166201 0.000782008 
0.000801314 0.000308 0.000159594 
2.73973e-05 0.00114315 -0.00134608 
0.000475458 6.41078e-05 -0.00195377 
0.000490904 -0.000331491 -0.00142314 
0.000599634 0.000935717 0.00104057 
-2.43241e-05 -0.00140192 0.00128229 
-1.91122e-05 -0.00104765 -0.00112637 
-0.000199076 0.00172901 0.00349261 
0.000137161 -0.000312662 0.001889 
0.00120017 -0.000267799 -7.55748e-06 
1.71668e-05 -0.000628965 0.000927418 
0.000866274 -0.000584049 -0.00260588 
0.000615102 0.00107605 0.000466938 
-0.000136001 -0.000158137 0.000792648 
-0.000610653 0.000605639 0.00117838 
0.000578371 0.000229009 0.00115701 
5.51455e-05 0.00102524 0.000692119 
0.0012762 0.000480063 -0.00133367 
-0.000379779 0.000289946 0.000504673 
-0.00827482 -0.0028549 -0.00747921 
0.000997136 0.000415203 5.88172e-05 
-0.000409962 -0.00113565 -0.00052389 
0.00028584 0.000179036 0.000156787 
-0.00123446 -0.000262154 0.000603406 
-0.000203819 0.000989688 -0.000485582 
0.000727391 -0.00130384 -0.000447686 
-0.00206332 0.000495763 0.000661414 
0.00140888 -0.000718135 -0.000873632 
-0.000370007 -0.000121151 0.0014599 
-0.00132748 0.000218107 -0.00160538 
-0.000995341 0.00112616 9.56543e-05 
0.00152542 -0.000117819 -0.00105795 
-0.000342504 -0.000783428 0.0001867 
-0.000117367 -0.000647246 -0.000633959 
0.00119894 0.00184744 -0.000444976 
-0.00228466 0.000641089 -0.00217149 
0.00271166 -0.000308597 0.00033023 
0.000131568 0.00125134 0.000862708 
0.00126283 0.000215219 -0.000487418 
0.00113748 0.000193906 -0.000801168 
8.06798e-05 0.000497252 0.00127455 
0.000260523 0.000436998 -0.00111576 
0.000977419 -0.000559764 0.00052435 
0.00102754 0.00225937 -0.000412552 
-0.000262599 0.00129013 -0.000281876 
0.000291263 0.000882639 -0.000574783 
0.000215777 6.69543e-05 0.000884069 
-0.00149915 -0.000985221 -0.00108203 
-0.00116602 -2.79872e-05 -0.00014181 
0.000571089 -0.000492142 0.000596572 
-0.000287135 0.00129831 -0.000732297 
0.000195433 0.000432365 0.000699064 
8.11142e-05 0.0001307 -0.000166469 
-0.00206146 -0.000235101 -5.57074e-05 
-0.000434729 -0.00434688 -0.00221917 
-0.000258075 -0.00199928 0.000940426 
-0.000252831 -0.00173565 -0.000374152 
-0.00136329 0.000243034 -0.000864497 
-0.000840061 -0.000228076 -0.00174232 
-0.000696642 -0.000193588 0.0012033 
-0.00136517 -0.000964222 0.000151569 
-0.000399603 0.000170422 0.000632081 
0.00474638 -0.00114002 0.0010105 
0.000176051 0.000846204 -0.000226602 
0.000325869 -0.00149546 -0.000184356 
0.000145634 -0.000320132 0.000196509 
0.000272531 0.000889265 -7.65758e-05 
-0.00109811 -0.000129731 -0.000189287 
-0.000287398 0.000715032 0.000753208 
0.00151292 0.000310944 -6.90719e-05 
-0.00172663 -0.00135318 0.000128584 
-0.000260869 -0.000309489 -0.00134683 
8.68463e-05 -0.000918064 0.00100171 
-0.0010965 -0.00035494 0.000334745 
0.000778516 0.000277891 -0.000123205 
0.00170364 9.77054e-05 -0.00149034 
0.000687082 -0.000333296 0.000597233 
0.00053198 -0.000669121 -0.000694144 
0.000412369 -0.000319476 -0.000237272 
-0.000606124 0.000186918 -0.00287537 
-0.000168636 0.000125754 -0.000277661 
0.00101569 -0.00170641 0.00134309 
0.00240214 0.00144289 -0.00251977 
-0.00245435 -0.000882864 0.00139135 
-0.000351112 0.00145018 -0.000795837 
0.00442755 0.00327006 0.00126844 
0.00668441 -2.97816e-05 0.00414939 
8.97615e-05 0.000701009 -0.00115011 
-0.000785921 0.00039158 0.0013214 
0.000125653 0.000585938 0.000788292 
0.000726341 0.00038434 0.000361316 
-0.00098475 -0.000374591 -0.000549817 
0.0011333 0.000169776 0.00115363 
0.000687747 -0.000101026 0.000883732 
0.00111994 0.000196627 0.000867128 
7.38834e-05 0.000504083 0.00192499 
-0.000121076 -0.00146037 0.000131205 
-0.000995695 -0.000698217 -0.00111278 
-0.000754308 -0.000755916 -0.00102408 
0.000176507 0.00125254 0.00158473 
-0.00279752 -0.00116723 0.00251702 
0.00208638 -0.000161184 -0.000526973 
0.0012112 -0.000967326 -0.00231858 
0.00079033 0.000176753 0.000212092 
0.000583829 0.000691702 0.001451 
-0.000985677 -0.00366931 0.000574467 
-0.00125659 -0.00162535 0.000559403 
0.000874323 0.000855243 0.000203539 
-0.000939469 0.00125901 0.000307984 
-0.000942466 -0.000769112 -0.000223831 
-4.50202e-05 -0.000867422 0.000100108 
0.000340634 0.000477773 0.00103955 
-0.000259067 -1.19804e-06 -0.000170666 
-4.29047e-05 8.43972e-05 0.000794716 
0.000956595 -0.000237469 -0.000346016 
0.00253625 -0.000656086 0.000488903 
-0.00167184 -0.000442415 -0.001002 
0.000266546 0.00127962 8.12237e-05 
-0.000504745 -0.00100717 0.000119964 
0.00101203 -0.000536261 0.000593549 
-5.0944e-05 0.00170039 -0.000512434 
-0.000732237 -0.00152421 -0.00131039 
-0.000241482 0.000567259 -0.000803243 
-0.00136295 -0.00193726 -0.000209648 
0.000137493 0.000471132 0.000214591 
0.000500801 -0.00123745 0.00012935 
-0.000760917 -0.00086916 -0.00200883 
-0.000677214 0.00097695 -8.33869e-05 
-0.000887201 -0.000950573 -0.000644734 
-0.000281166 0.000757243 0.000359115 
-0.00353562 -0.000769428 -0.000302746 
0.000558884 -0.000880289 8.96406e-05 
0.00174301 -0.000517794 -0.00254273 
-0.000806474 -0.000416764 -0.00124141 
0.000203706 0.000891346 0.00018137 
0.000189833 -0.00129715 0.00114458 
0.000592533 0.00210791 -0.000863148 
4.62743e-05 0.00204632 0.00050241 
0.00078093 0.000486397 -0.00238895 
-0.000479389 0.000586928 -0.000137643 
-4.70978e-05 -4.73543e-05 0.000903508 
-0.000993682 -0.00139723 0.000470281 
-0.000426812 0.00080947 -0.000224052 
-0.000271997 -0.000279109 0.00126612 
-0.000129878 -0.00105163 0.00200203 
-0.000614388 -0.000601656 0.00157784 
-0.00069414 0.000658519 -0.000729948 
0.000802957 0.00103142 -0.000318526 
0.000291798 -0.00044502 0.000307263 
0.00164412 -0.000865792 7.20546e-06 
0.000258595 -0.000614866 0.00425948 
0.00137677 -0.000748864 -0.000601392 
0.00022319 -0.00153217 0.0013193 
0.00030182 -0.00142263 0.00127903 
0.00362611 0.000140636 -0.000382827 
0.000460539 0.00153825 -0.000571486 
0.00165222 -0.000462126 -0.00104452 
0.000244875 0.00115148 0.00164501 
8.48881e-05 0.000803962 0.00127112 
0.0010498 -1.79284e-05 0.000832568 
-0.000361635 -0.0031155 -0.00146177 
0.000211499 0.000250668 -7.84568e-05 
-0.000842136 -0.000827572 -0.000458219 
0.00219524 0.00099396 -0.0013772 
0.00251013 0.000775016 -0.000976215 
0.00170559 -0.00127644 -0.00251518 
0.000151975 -0.000540802 7.02713e-05 
0.00277089 -0.00218252 -0.00191416 
-0.000745863 -0.000793194 0.00055757 
-0.00164944 0.0010173 -0.000514698 
2.33468e-05 0.00208707 -0.000411606 
0.00595417 -0.000478876 0.000912089 
0.000128861 0.0013553 0.000719007 
-0.00101538 -0.0017818 -0.00101687 
-0.00507487 -0.000338441 -0.00132574 
0.00117622 -9.32822e-05 0.000443709 
-0.00404161 0.00341282 -0.000285871 
-0.000641339 0.0013638 0.000735584 
-0.000753295 0.000674437 -0.000634162 
-0.00158386 0.000226301 -0.00219572 
0.000440571 0.000930453 0.000491639 
-0.000673017 0.00257054 -0.000977964 
0.0013872 -0.000113328 0.000879133 
0.000233101 -0.000950792 -0.00127502 
0.00087247 0.000285547 0.000795535 
-0.00311744 0.00158243 -0.0003632 
0.000115863 0.000634951 -0.000217293 
-0.00101101 -0.0018494 0.000728125 
-0.000872797 0.00113017 -0.00136113 
-0.000849687 0.000437915 -0.000180389 
-0.000188912 -0.00123767 0.000327443 
-0.000141072 0.00108183 -0.00119499 
-0.000454584 0.00201095 -0.00148632 
0.000788132 -0.000420104 -0.00118343 
-0.00330352 0.000862211 0.000620384 
-0.00039547 -0.00103346 0.00022348 
-0.00509602 -0.000244003 -0.0014084 
-0.000590085 -0.000319436 -0.000304983 
0.000350975 -0.00112484 0.000615489 
0.000408941 0.00125009 -0.000263058 
-0.000923636 0.00300456 0.00171332 
0.000699758 -0.000231321 0.000254697 
-0.000503425 -0.000443356 0.00116204 
0.000316034 -0.000596613 -0.000888313 
-0.000447543 -0.000229902 -0.000214828 
-1.28183e-05 0.000625329 -4.29294e-05 
0.0024605 -0.000778237 0.00159358 
-0.00102081 -0.00145085 0.000957703 
-0.00462354 -0.00166454 -0.00259257 
-0.000280525 0.000944532 0.000272966 
0.00230131 -9.26168e-05 0.00198694 
0.000846641 -0.000190888 -0.00111767 
0.000761531 -0.000470758 0.000822264 
-0.000252771 -0.00304557 -0.00136958 
-0.000693398 0.00245815 0.00298898 
0.000680632 0.000442373 -0.000322609 
-0.00394308 0.00107606 -0.00118992 
-0.00117975 0.000813371 0.00134614 
0.000566793 0.000164427 0.000193649 
-0.000286439 -0.000470157 0.000289542 
-0.000387154 -0.00139128 -4.12872e-05 
0.000307265 -0.000858133 -0.00051476 
0.000586836 -0.00127199 -0.00183071 
0.000521433 -0.00238051 0.0016206 
ITEM: TIMESTEP
357
ITEM: NUMBER OF ATOMS
256
ITEM: BOX BOUNDS
0 6.3299
0 6.3299
0 6.3299
ITEM: ATOMS fx fy fz 
-0.000597118 -0.000137956 0.0014699 
0.000969925 -0.000159438 0.000478266 
0.0014685 -0.00115153 -0.000323073 
0.000317948 0.000176844 -0.000160196 
0.000633158 0.000809294 -7.35367e-05 
-0.000208401 -0.00297959 0.000357478 
0.000346545 0.000401686 0.000321677 
-0.000926577 0.00192103 0.000860278 
-1.08472e-05 -0.00192569 7.44694e-05 
0.000106226 -0.000150476 -0.000121141 
0.000854284 5.06271e-05 -0.000209748 
-0.00041762 -0.00189954 0.00112727 
-0.00031124 0.000450415 -0.00244287 
-0.00051618 0.000223904 0.00121624 
0.000312375 0.000141627 -0.00035681 
-0.00021457 0.00216938 0.00278202 
-0.00188676 0.00159414 0.00211148 
-0.00212394 0.000699451 0.00443538 
-0.000951732 0.00122922 -0.00123725 
0.00294346 -0.00100019 0.000870796 
0.000726603 0.000832229 0.00020144 
-0.000767565 0.00211285 0.000164201 
-0.000511753 0.000138767 -0.000419537 
0.00128376 -0.000335155 0.000132694 
0.00011878 0.000858082 -0.000238961 
0.000187358 0.00103326 -0.000183498 
0.0012602 0.0018514 8.55913e-05 
0.000526798 -4.17892e-05 0.000155672 
-0.00118622 0.00105161 0.000358074 
0.000712916 0.00016803 -0.00136397 
-0.000274019 0.0015892 -0.000561691 
-0.00113305 0.00165212 0.000772206 
0.000798607 0.00030455 0.000159717 
3.23341e-05 0.00114152 -0.00134209 
0.000474988 7.00356e-05 -0.00193498 
0.000490923 -0.00033003 -0.00142297 
0.000600028 0.000930884 0.00103599 
-2.85564e-05 -0.00139956 0.00127775 
-1.34068e-05 -0.001044 -0.00111215 
-0.000205 0.00172867 0.00348439 
0.000131964 -0.000305932 0.00186806 
0.00119911 -0.000263366 -1.05082e-05 
2.03766e-05 -0.000630054 0.000925848 
0.000856733 -0.000574086 -0.00259651 
0.000609305 0.00107417 0.000463803 
-0.000136228 -0.000157222 0.000791512 
-0.000606484 0.000603096 0.0011727 
0.000573308 0.000231401 0.00114484 
6.32904e-05 0.00101601 0.000692087 
0.00128004 0.000480104 -0.00133086 
-0.000373063 0.000285165 0.000515775 
-0.00814661 -0.00282459 -0.00743118 
0.000993048 0.000408399 6.24726e-05 
-0.000402679 -0.00113251 -0.000520567 
0.000285558 0.000177726 0.000161254 
-0.00122627 -0.000263393 0.000604114 
-0.000201017 0.000985539 -0.000484991 
0.000726086 -0.00130174 -0.000445495 
-0.00205894 0.000493025 0.000664172 
0.00140553 -0.000716182 -0.000868578 
-0.000366366 -0.000124164 0.00145324 
-0.00132668 0.000213438 -0.00160184 
-0.000995554 0.00112768 9.61221e-05 
0.00152349 -0.000118518 -0.00106209 
-0.000341185 -0.000785171 0.000184899 
-0.000114744 -0.000654117 -0.000635262 
0.00118869 0.0018296 -0.000442945 
-0.00227797 0.000632931 -0.00215751 
0.00269224 -0.000308196 0.000333063 
0.000130041 0.00124326 0.000857968 
0.00126198 0.000214624 -0.000487817 
0.0011346 0.000197442 -0.000801546 
8.13176e-05 0.00049714 0.00127393 
0.000261346 0.0004359 -0.00111314 
0.000977874 -0.000551968 0.000524956 
0.00102669 0.00224616 -0.000411899 
-0.000259827 0.00128439 -0.000281893 
0.000291806 0.000875167 -0.000573391 
0.000210845 6.93967e-05 0.000884173 
-0.00149595 -0.000984471 -0.00107534 
-0.00116467 -2.64985e-05 -0.00014011 
0.000569081 -0.00049237 0.000597127 
-0.000282632 0.00129344 -0.000732071 
0.000196802 0.000431339 0.000697364 
8.20154e-05 0.000131308 -0.000156382 
-0.00203775 -0.000238572 -4.27086e-05 
-0.000428365 -0.00431852 -0.00220459 
-0.000249958 -0.00198587 0.000939682 
-0.00025736 -0.00172565 -0.000372279 
-0.00135212 0.000236639 -0.000853698 
-0.000836128 -0.000229376 -0.00173987 
-0.000694931 -0.000191004 0.00119941 
-0.00136989 -0.000954283 0.000149407 
-0.000398591 0.000165613 0.00062917 
0.00468532 -0.00114469 0.00100609 
0.000175931 0.000842899 -0.000226713 
0.000324873 -0.00148836 -0.000181723 
0.000149238 -0.000318154 0.000193134 
0.000270571 0.000882037 -7.06812e-05 
-0.00109533 -0.000132458 -0.000190614 
-0.000283573 0.000715547 0.000751341 
0.00150968 0.000307545 -6.68633e-05 
-0.0017257 -0.00134095 0.000125881 
-0.000260558 -0.000316212 -0.00134068 
8.82603e-05 -0.000915384 0.000999301 
-0.00109265 -0.000354303 0.000332948 
0.000779521 0.000273229 -0.000125007 
0.00169877 9.3751e-05 -0.00148228 
0.000675291 -0.000331562 0.000602899 
0.000532232 -0.000665348 -0.000694104 
0.000410009 -0.000314195 -0.000232683 
-0.000613142 0.000182633 -0.00285756 
-0.00017059 0.000121839 -0.00028317 
0.00101575 -0.00170023 0.00132715 
0.00239479 0.00143885 -0.00251434 
-0.0024509 -0.000885094 0.00138448 
-0.000352502 0.0014452 -0.000795132 
0.00438118 0.0032373 0.00123679 
0.00657237 -2.30656e-05 0.00411087 
8.6361e-05 0.000698232 -0.00114439 
-0.000781214 0.000383168 0.00130864 
0.000123061 0.000582452 0.000791472 
0.000725948 0.000383853 0.000358477 
-0.000980269 -0.000372274 -0.00054851 
0.00113099 0.000169783 0.0011472 
0.000685586 -9.97396e-05 0.000882554 
0.00111324 0.000195518 0.000865715 
6.67233e-05 0.000497131 0.00190998 
-0.000116533 -0.00145154 0.000132721 
-0.000988839 -0.000703541 -0.00110535 
-0.00074945 -0.00075932 -0.00102135 
0.00017743 0.00125262 0.00157938 
-0.00275593 -0.00115885 0.00250555 
0.00208407 -0.000159425 -0.000532727 
0.00120724 -0.000964592 -0.00230677 
0.000789354 0.000178387 0.000214613 
0.000582234 0.000689691 0.00144036 
-0.000983359 -0.00365117 0.000570129 
-0.00125593 -0.00161079 0.000554968 
0.000871892 0.000850839 0.000204242 
-0.000935004 0.00125203 0.000304751 
-0.000941995 -0.000757243 -0.000225794 
-4.65808e-05 -0.000865912 0.00010302 
0.000339516 0.000475664 0.00103021 
-0.000256983 -1.13731e-06 -0.000167995 
-4.31642e-05 8.47799e-05 0.000795211 
0.000956827 -0.000242431 -0.000350305 
0.00251441 -0.000645255 0.000480679 
-0.00165678 -0.000437299 -0.000994808 
0.000269166 0.00127348 8.13677e-05 
-0.000506514 -0.00100596 0.000120804 
0.00101421 -0.000535005 0.000592207 
-5.26854e-05 0.00168949 -0.000512394 
-0.000738202 -0.00152361 -0.00130019 
-0.000243411 0.000567165 -0.000805257 
-0.00135826 -0.00193646 -0.000205718 
0.000136572 0.000471508 0.000210313 
0.000499356 -0.00122569 0.000127057 
-0.000760623 -0.000865404 -0.00200751 
-0.000675281 0.000974596 -8.18889e-05 
-0.000886781 -0.000950472 -0.000642351 
-0.000278363 0.000754615 0.000359762 
-0.00352362 -0.000760351 -0.000287217 
0.000556268 -0.000874781 8.83925e-05 
0.0017397 -0.000514234 -0.00253802 
-0.000797479 -0.000409747 -0.00123811 
0.000201962 0.000891889 0.000175689 
0.00018202 -0.00128153 0.00113852 
0.000594601 0.00209373 -0.000852612 
4.1912e-05 0.00205032 0.000501552 
0.00078479 0.000480133 -0.00237679 
-0.000476688 0.000582641 -0.000149415 
-4.6479e-05 -4.27524e-05 0.000902078 
-0.000989925 -0.00138777 0.000467054 
-0.000424332 0.000805042 -0.000220348 
-0.000279377 -0.000288427 0.00126293 
-0.000122986 -0.00104739 0.00198104 
-0.000611987 -0.000600478 0.00156861 
-0.000685367 0.000646791 -0.000725517 
0.00079561 0.00103571 -0.000311477 
0.000290905 -0.000442556 0.000307081 
0.00163983 -0.00086246 5.57958e-06 
0.000255985 -0.000615394 0.00422892 
0.00137177 -0.000742538 -0.000604901 
0.000226725 -0.00152009 0.0013077 
0.000294567 -0.00141475 0.00126999 
0.00361187 0.000138294 -0.000382632 
0.000462344 0.00152954 -0.000571125 
0.00164377 -0.000455208 -0.00103074 
0.000240724 0.00114449 0.00163403 
9.73706e-05 0.000801248 0.00126551 
0.001049 -2.06775e-05 0.000829961 
-0.000364913 -0.00308626 -0.00144714 
0.000215242 0.000250462 -7.61727e-05 
-0.000836922 -0.000819267 -0.000458668 
0.00217264 0.000990122 -0.00137686 
0.00247571 0.000771145 -0.000968047 
0.0016969 -0.00126687 -0.00250835 
0.000148384 -0.000539953 6.66794e-05 
0.00275386 -0.00217686 -0.00191332 
-0.000738946 -0.000793877 0.000555951 
-0.00164632 0.00101498 -0.000517383 
2.66602e-05 0.00205885 -0.000413059 
0.00588895 -0.000474796 0.000903028 
0.000131977 0.00135341 0.000718993 
-0.00100888 -0.00176303 -0.00100738 
-0.00503922 -0.000344632 -0.00132918 
0.00116769 -9.59071e-05 0.000442357 
-0.0040109 0.00339159 -0.000268863 
-0.000633555 0.00135397 0.000737029 
-0.000749228 0.000671027 -0.000635339 
-0.00157837 0.000223553 -0.00217966 
0.000441061 0.000928735 0.000489936 
-0.00066181 0.00255019 -0.000974775 
0.00138239 -0.000111753 0.000877706 
0.000232616 -0.000946929 -0.00126983 
0.000865532 0.000284792 0.000797912 
-0.00307191 0.00156722 -0.000350338 
0.00011616 0.000631837 -0.000215703 
-0.00101157 -0.00184424 0.000727581 
-0.000872338 0.00113004 -0.00136026 
-0.000849926 0.000436269 -0.000177978 
-0.000193105 -0.00122457 0.000327042 
-0.00013953 0.00107696 -0.00118836 
-0.000453161 0.00200296 -0.00148376 
0.000784317 -0.000416583 -0.00118491 
-0.00330243 0.000863287 0.000623768 
-0.000395039 -0.00103177 0.000223348 
-0.00505475 -0.000250996 -0.00139275 
-0.000589798 -0.000320405 -0.000303841 
0.000350201 -0.00111925 0.00061416 
0.000406979 0.0012415 -0.000261864 
-0.000923497 0.00298159 0.00169825 
0.000695745 -0.000227105 0.000255242 
-0.000500445 -0.000441406 0.00115989 
0.000313021 -0.000593416 -0.00088248 
-0.000446896 -0.000227383 -0.000214602 
-1.31165e-05 0.000619361 -4.22429e-05 
0.00244842 -0.00077233 0.00158236 
-0.00102512 -0.00144794 0.000954721 
-0.00458616 -0.00164806 -0.00257187 
-0.000279351 0.000943782 0.000271599 
0.00229661 -9.05811e-05 0.00197772 
0.000844476 -0.000186795 -0.00111568 
0.000760812 -0.000470301 0.000817265 
-0.000254375 -0.00303207 -0.00136383 
-0.000686362 0.00245917 0.00298221 
0.000681301 0.000441699 -0.000322436 
-0.00389413 0.00106331 -0.00118478 
-0.00117575 0.000816109 0.00133858 
0.000564609 0.000162531 0.000194657 
-0.000283664 -0.000471303 0.000286486 
-0.000383714 -0.00138286 -4.19641e-05 
0.000309523 -0.000853874 -0.00051411 
0.000586498 -0.00127273 -0.00182937 
0.000520194 -0.00236392 0.00160899 
