ITEM: TIMESTEP
356
ITEM: NUMBER OF ATOMS
256
ITEM: BOX BOUNDS
0 6.3299
0 6.3299
0 6.3299
ITEM: ATOMS x y z 
0.815747 0.72039 4.81567 
2.73931 2.23488 1.02315 
1.63447 0.105931 1.4828 
5.09461 2.08595 1.9199 
0.678648 3.91016 6.25088 
2.96538 5.37208 4.89309 
1.94497 4.22912 2.24414 
4.06438 3.47048 4.7949 
6.03503 4.84387 3.277 
0.038367 1.24079 1.41804 
0.263074 0.115512 4.00382 
1.76863 0.408894 5.95129 
5.40065 6.09701 5.7862 
1.71879 3.76567 4.25391 
2.60463 3.78788 1.52516 
0.216673 2.51686 3.58468 
3.61883 3.76326 3.80861 
5.59242 2.23204 4.51227 
3.41121 5.49418 2.70386 
1.80091 2.2559 5.38932 
1.49772 3.65766 1.42042 
3.11794 4.75429 3.94381 
5.55622 3.07685 2.04613 
1.11552 2.95597 0.699305 
4.40295 4.37136 4.29333 
4.29417 3.61429 1.10269 
5.03839 2.81419 1.10332 
3.19737 3.29269 0.822768 
0.240969 6.13125 2.39998 
3.95579 2.61073 1.01402 
3.47935 6.28896 4.70533 
1.8741 4.85927 3.83389 
0.0945618 4.30571 5.37169 
6.02454 3.7732 0.332751 
2.03859 5.71291 4.43363 
1.8949 3.14869 3.15796 
3.21291 2.79753 1.83194 
3.07082 1.84232 3.81189 
5.84427 1.04889 0.526754 
1.33254 1.65597 4.64765 
4.42166 2.46687 4.60887 
5.1177 5.11805 3.87113 
2.5922 5.94739 1.43296 
4.77994 0.820907 0.495018 
3.12047 0.694112 1.21342 
2.01636 2.89565 1.98071 
0.888686 1.81086 1.95533 
1.94314 5.2866 5.42471 
2.15093 3.06285 0.859846 
3.4844 6.24962 1.91424 
4.17771 1.59247 4.03183 
4.22239 1.56778 6.26776 
1.27219 5.78231 6.15509 
2.25124 0.360496 0.658881 
2.15382 2.22258 0.102535 
0.0686688 0.166989 0.42058 
5.75719 1.32581 2.38214 
5.66227 3.91843 2.78477 
0.318315 1.99745 4.52273 
2.73908 3.49082 2.55627 
0.466925 4.22435 2.80061 
4.41644 6.12013 5.27556 
2.52779 0.293865 4.13915 
4.17873 6.21382 1.0383 
1.24552 2.23687 3.77484 
3.40404 6.04236 5.8195 
3.72532 0.702098 0.330893 
2.43039 5.92976 2.55076 
3.92398 2.50814 5.55767 
4.05742 4.68946 2.29521 
5.7743 5.75811 4.43704 
4.99553 3.54362 0.311087 
0.585836 1.11685 0.303802 
5.49982 4.72281 1.82746 
3.20685 6.13727 0.566717 
5.36583 4.32834 5.9869 
4.61025 1.16086 2.30539 
5.26789 1.12054 1.43658 
0.484218 0.848783 2.27959 
3.88662 2.54644 3.64206 
1.88839 0.771485 4.92109 
0.931196 4.46567 1.8028 
4.89094 3.10691 2.8848 
2.77453 5.15748 0.717075 
0.316936 2.89815 0.0236206 
1.23869 1.31045 5.67882 
4.29546 0.670794 4.64754 
1.6562 3.84431 0.31602 
5.79754 3.43036 5.63263 
2.15324 1.20146 1.34375 
3.43361 0.81046 3.98424 
2.91428 2.97393 3.51498 
5.23861 3.20797 4.71796 
5.38091 4.24044 4.91037 
0.237206 1.37892 5.4287 
3.79935 5.28622 0.272673 
2.52972 3.19576 6.20981 
0.194567 5.76727 5.95791 
1.91088 4.858 0.0627273 
5.33155 4.08882 3.81399 
0.484333 2.09724 0.96755 
2.32734 5.88922 6.3089 
4.43525 4.05892 3.13978 
0.997206 5.6741 4.19414 
2.70417 1.28393 2.89547 
1.47221 4.12408 3.21887 
5.863 5.91092 3.29711 
1.23999 5.02073 2.70163 
2.79907 3.62809 4.4569 
3.78944 6.07343 3.64915 
3.92969 5.33 4.42873 
4.5896 3.30736 3.88653 
2.42985 4.15081 5.69933 
5.32755 0.373097 4.90612 
2.66764 4.12815 0.411414 
1.2923 6.13116 5.12828 
2.16068 2.68759 4.22891 
4.46641 1.55305 5.2124 
3.28792 1.5296 5.85793 
3.32337 4.32805 2.92872 
2.71296 1.34172 0.418301 
0.696573 0.385729 5.85708 
5.03155 5.5539 1.26099 
5.49147 5.7469 2.29214 
4.08783 5.02694 3.40522 
0.095024 5.07133 2.26728 
1.16744 0.231446 0.527247 
2.44335 1.74872 4.70563 
3.61621 3.80489 1.91852 
5.4956 0.395876 3.85749 
1.39523 3.96174 5.39594 
4.77701 3.90152 2.11589 
0.776944 2.28532 5.45626 
5.26373 0.397465 2.78398 
6.14885 0.977962 4.51789 
4.51367 4.63234 1.33251 
4.35143 2.91829 1.96391 
2.14289 3.23291 5.17753 
3.30029 2.70982 4.53699 
4.39343 4.39194 0.264818 
6.11094 5.73367 1.40787 
4.69829 3.34613 5.65408 
3.77679 3.24178 2.83143 
3.81169 1.31695 3.09885 
6.31193 3.8767 1.90118 
2.02222 0.460007 3.10955 
4.71699 6.0629 4.24444 
5.88841 0.380774 1.87943 
4.83751 0.203251 1.81917 
0.0126634 4.77204 0.0537349 
0.749835 4.69861 3.75914 
0.526301 0.191238 1.40611 
2.33381 4.53918 4.72586 
1.16427 2.88709 4.64557 
4.40991 2.15517 2.77268 
0.0285599 3.84576 3.68217 
1.68868 5.79883 3.37607 
5.43138 3.80559 1.2624 
4.39478 6.2258 0.000644651 
2.49166 3.99287 3.50483 
3.24418 3.40843 5.45224 
0.547846 5.59677 0.630544 
6.32295 3.06821 4.50482 
5.61198 2.7134 0.113901 
3.60624 1.63324 0.852044 
5.06501 1.36419 3.22338 
3.32347 2.42993 0.132652 
2.95362 0.841518 5.01672 
1.08904 2.07529 0.101402 
5.96568 1.6312 3.69634 
4.77342 5.86113 3.17865 
4.66143 1.81293 0.921251 
2.40246 4.92791 2.9116 
4.81716 5.2468 6.0807 
5.37865 4.6722 0.66811 
0.68097 3.92363 4.52706 
4.18004 0.907943 1.35618 
1.89425 5.27907 1.90125 
2.88728 5.10058 5.93711 
0.312116 1.73855 2.86589 
1.61105 2.11048 1.14511 
4.40158 5.64695 2.15851 
0.515761 3.30934 5.39333 
3.50118 4.2803 6.03631 
5.95817 0.657575 5.88511 
1.67052 1.22265 0.344091 
4.46732 0.591056 3.61201 
3.1209 0.298372 3.02491 
3.53158 0.936489 2.18617 
0.723625 2.87892 1.70683 
6.30298 1.89663 0.000484251 
1.68019 5.5871 0.836349 
2.83039 0.534943 6.0816 
1.01988 4.66635 0.651647 
0.94789 4.85307 5.80836 
4.87592 0.741954 5.78771 
6.09057 2.43409 5.42765 
5.73778 5.61365 0.359805 
1.33764 6.08675 2.42202 
5.12619 1.28844 4.31372 
1.53181 0.847887 2.2126 
1.34439 1.43961 3.04894 
4.55895 2.553 0.125862 
5.25319 1.69897 6.29183 
0.665602 1.20591 3.84321 
1.15239 3.51411 2.42339 
3.83824 0.664821 5.59933 
1.92452 1.85623 2.2275 
3.50786 1.72303 4.83172 
2.9161 1.71018 1.89786 
0.403805 5.3544 4.99872 
4.93922 2.28989 3.69049 
6.14776 2.98284 1.08608 
4.42936 4.31839 5.42775 
3.52113 4.36093 0.969596 
2.19767 2.15007 3.24054 
1.09955 1.076 1.23822 
2.27425 1.37587 5.73517 
5.72326 2.00631 0.961459 
1.44758 0.310293 4.06011 
2.90908 4.76509 1.93093 
3.27858 2.23796 2.77373 
3.88923 5.19295 5.49817 
1.10969 2.49948 2.74388 
3.43911 4.37734 4.92425 
3.9707 1.90147 1.8346 
2.02934 1.24933 3.86452 
0.86968 5.51965 1.63834 
2.8345 2.41195 5.48175 
6.15119 4.71562 4.34925 
0.0390176 4.72249 1.16075 
5.04055 4.87198 2.79084 
2.46077 6.24281 5.2674 
3.90609 3.37551 0.0492033 
0.0226849 0.0448323 5.08308 
0.917859 0.385693 3.14926 
5.65782 2.30604 2.86706 
5.44371 0.138695 0.926503 
4.1523 0.234307 2.67987 
5.64227 3.07079 3.65596 
5.04851 2.3913 5.49088 
6.21353 2.22053 1.92794 
1.97568 4.56311 1.13573 
4.86924 5.20343 4.93517 
0.532123 3.78001 0.995047 
1.28094 4.79398 4.73285 
6.22648 0.713765 3.15789 
3.65501 5.33757 1.38928 
5.53471 1.45344 5.28298 
2.76298 5.71289 3.60036 
0.137728 3.11674 2.69453 
1.40602 3.03871 5.99043 
5.78684 5.16096 5.4537 
0.934537 3.29125 3.61421 
0.562682 5.62774 3.24564 
2.5384 0.539702 2.09577 
ITEM: TIMESTEP
357
ITEM: NUMBER OF ATOMS
256
ITEM: BOX BOUNDS
0 6.3299
0 6.3299
0 6.3299
ITEM: ATOMS x y z 
0.815747 0.72039 4.81567 
2.73931 2.23488 1.02315 
1.63447 0.105931 1.4828 
5.09461 2.08595 1.9199 
0.678648 3.91016 6.25088 
2.96538 5.37208 4.89309 
1.94497 4.22912 2.24414 
4.06438 3.47048 4.7949 
6.03503 4.84387 3.277 
0.038367 1.24079 1.41804 
0.263074 0.115512 4.00382 
1.76863 0.408894 5.95129 
5.40065 6.09701 5.7862 
1.71879 3.76567 4.25391 
2.60463 3.78788 1.52516 
0.216673 2.51686 3.58468 
3.61883 3.76326 3.80861 
5.59242 2.23204 4.51227 
3.41121 5.49418 2.70386 
1.80091 2.2559 5.38932 
1.49772 3.65766 1.42042 
3.11794 4.75429 3.94381 
5.55622 3.07685 2.04613 
1.11552 2.95597 0.699305 
4.40295 4.37136 4.29333 
4.29417 3.61429 1.10269 
5.03839 2.81419 1.10332 
3.19737 3.29269 0.822768 
0.240969 6.13125 2.39998 
3.95579 2.61073 1.01402 
3.47935 6.28896 4.70533 
1.8741 4.85927 3.83389 
0.0945618 4.30571 5.37169 
6.02454 3.7732 0.332751 
2.03859 5.71291 4.43363 
1.8949 3.14869 3.15796 
3.21291 2.79753 1.83194 
3.07082 1.84232 3.81189 
5.84427 1.04889 0.526754 
1.33254 1.65597 4.64765 
4.42166 2.46687 4.60887 
5.1177 5.11805 3.87113 
2.5922 5.94739 1.43296 
4.77994 0.820907 0.495018 
3.12047 0.694112 1.21342 
2.01636 2.89565 1.98071 
0.888686 1.81086 1.95533 
1.94314 5.2866 5.42471 
2.15093 3.06285 0.859846 
3.4844 6.24962 1.91424 
4.17771 1.59247 4.03183 
4.22239 1.56778 6.26776 
1.27219 5.78231 6.15509 
2.25124 0.360496 0.658881 
2.15382 2.22258 0.102535 
0.0686687 0.166989 0.42058 
5.75719 1.32581 2.38214 
5.66227 3.91843 2.78477 
0.318315 1.99745 4.52273 
2.73908 3.49082 2.55627 
0.466925 4.22435 2.80061 
4.41644 6.12013 5.27556 
2.52779 0.293865 4.13915 
4.17873 6.21382 1.0383 
1.24552 2.23687 3.77484 
3.40404 6.04236 5.8195 
3.72532 0.702098 0.330893 
2.43039 5.92976 2.55076 
3.92398 2.50814 5.55767 
4.05742 4.68946 2.29521 
5.7743 5.75811 4.43704 
4.99553 3.54362 0.311087 
0.585836 1.11685 0.303802 
5.49982 4.72281 1.82746 
3.20685 6.13727 0.566717 
5.36583 4.32834 5.9869 
4.61025 1.16086 2.30539 
5.26789 1.12054 1.43658 
0.484218 0.848783 2.27959 
3.88662 2.54644 3.64206 
1.88839 0.771485 4.92109 
0.931196 4.46567 1.8028 
4.89094 3.10691 2.8848 
2.77453 5.15748 0.717075 
0.316936 2.89815 0.0236206 
1.23869 1.31045 5.67882 
4.29546 0.670794 4.64754 
1.6562 3.84431 0.31602 
5.79754 3.43036 5.63263 
2.15324 1.20146 1.34375 
3.43361 0.81046 3.98424 
2.91428 2.97393 3.51498 
5.23861 3.20797 4.71796 
5.38091 4.24044 4.91037 
0.237206 1.37892 5.4287 
3.79935 5.28622 0.272673 
2.52972 3.19576 6.20981 
0.194567 5.76727 5.95791 
1.91088 4.858 0.0627273 
5.33155 4.08882 3.81399 
0.484333 2.09724 0.96755 
2.32734 5.88922 6.3089 
4.43525 4.05892 3.13978 
0.997206 5.6741 4.19414 
2.70417 1.28393 2.89547 
1.47221 4.12408 3.21887 
5.863 5.91092 3.29711 
1.23999 5.02073 2.70163 
2.79907 3.62809 4.4569 
3.78944 6.07343 3.64915 
3.92969 5.33 4.42873 
4.5896 3.30736 3.88653 
2.42985 4.15081 5.69933 
5.32755 0.373097 4.90612 
2.66764 4.12815 0.411414 
1.2923 6.13116 5.12828 
2.16068 2.68759 4.22891 
4.46641 1.55305 5.2124 
3.28792 1.5296 5.85793 
3.32337 4.32805 2.92872 
2.71296 1.34172 0.418301 
0.696573 0.385729 5.85708 
5.03155 5.5539 1.26099 
5.49147 5.7469 2.29214 
4.08783 5.02694 3.40522 
0.095024 5.07133 2.26728 
1.16744 0.231446 0.527247 
2.44335 1.74872 4.70563 
3.61621 3.80489 1.91852 
5.4956 0.395876 3.85749 
1.39523 3.96174 5.39594 
4.77701 3.90152 2.11589 
0.776944 2.28532 5.45626 
5.26373 0.397465 2.78398 
6.14885 0.977962 4.51789 
4.51367 4.63234 1.33251 
4.35143 2.91829 1.96391 
2.14289 3.23291 5.17753 
3.30029 2.70982 4.53699 
4.39343 4.39194 0.264818 
6.11094 5.73367 1.40787 
4.69829 3.34613 5.65408 
3.77679 3.24178 2.83143 
3.81169 1.31695 3.09885 
6.31193 3.8767 1.90118 
2.02222 0.460007 3.10955 
4.71699 6.0629 4.24444 
5.88841 0.380774 1.87943 
4.83751 0.203251 1.81917 
0.0126634 4.77204 0.0537349 
0.749835 4.69861 3.75914 
0.526301 0.191238 1.40611 
2.33381 4.53918 4.72586 
1.16427 2.88709 4.64557 
4.40991 2.15517 2.77268 
0.0285599 3.84576 3.68217 
1.68868 5.79883 3.37607 
5.43138 3.80559 1.2624 
4.39478 6.2258 0.000644626 
2.49166 3.99287 3.50483 
3.24418 3.40843 5.45224 
0.547846 5.59677 0.630544 
6.32295 3.06821 4.50482 
5.61198 2.7134 0.113901 
3.60624 1.63324 0.852044 
5.06501 1.36419 3.22338 
3.32347 2.42993 0.132652 
2.95362 0.841518 5.01672 
1.08904 2.07529 0.101402 
5.96568 1.6312 3.69634 
4.77342 5.86113 3.17865 
4.66143 1.81293 0.921251 
2.40246 4.92791 2.9116 
4.81716 5.2468 6.0807 
5.37865 4.6722 0.66811 
0.68097 3.92363 4.52706 
4.18004 0.907943 1.35618 
1.89425 5.27907 1.90125 
2.88728 5.10058 5.93711 
0.312116 1.73855 2.86589 
1.61105 2.11048 1.14511 
4.40158 5.64695 2.15851 
0.515761 3.30934 5.39333 
3.50118 4.2803 6.03631 
5.95817 0.657575 5.88511 
1.67052 1.22265 0.344091 
4.46732 0.591056 3.61201 
3.1209 0.298372 3.02491 
3.53158 0.936489 2.18617 
0.723625 2.87892 1.70683 
6.30298 1.89663 0.000484267 
1.68019 5.5871 0.836349 
2.83039 0.534943 6.0816 
1.01988 4.66635 0.651647 
0.94789 4.85307 5.80836 
4.87592 0.741954 5.78771 
6.09057 2.43409 5.42765 
5.73778 5.61365 0.359805 
1.33764 6.08675 2.42202 
5.12619 1.28844 4.31372 
1.53181 0.847887 2.2126 
1.34439 1.43961 3.04894 
4.55895 2.553 0.125862 
5.25319 1.69897 6.29183 
0.665602 1.20591 3.84321 
1.15239 3.51411 2.42339 
3.83824 0.664821 5.59933 
1.92452 1.85623 2.2275 
3.50786 1.72303 4.83172 
2.9161 1.71018 1.89786 
0.403805 5.3544 4.99872 
4.93922 2.28989 3.69049 
6.14776 2.98284 1.08608 
4.42936 4.31839 5.42775 
3.52113 4.36093 0.969596 
2.19767 2.15007 3.24054 
1.09955 1.076 1.23822 
2.27425 1.37587 5.73517 
5.72326 2.00631 0.961459 
1.44758 0.310293 4.06011 
2.90908 4.76509 1.93093 
3.27858 2.23796 2.77373 
3.88923 5.19295 5.49817 
1.10969 2.49948 2.74388 
3.43911 4.37734 4.92425 
3.9707 1.90147 1.8346 
2.02934 1.24933 3.86452 
0.86968 5.51965 1.63834 
2.8345 2.41195 5.48175 
6.15119 4.71562 4.34925 
0.0390176 4.72249 1.16075 
5.04055 4.87198 2.79084 
2.46077 6.24281 5.2674 
3.90609 3.37551 0.0492033 
0.0226849 0.0448323 5.08308 
0.917859 0.385693 3.14926 
5.65782 2.30604 2.86706 
5.44371 0.138695 0.926503 
4.1523 0.234307 2.67987 
5.64227 3.07079 3.65596 
5.04851 2.3913 5.49088 
6.21353 2.22053 1.92794 
1.97568 4.56311 1.13573 
4.86924 5.20343 4.93517 
0.532123 3.78001 0.995047 
1.28094 4.79398 4.73285 
6.22648 0.713765 3.15789 
3.65501 5.33757 1.38928 
5.53471 1.45344 5.28298 
2.76298 5.71289 3.60036 
0.137728 3.11674 2.69453 
1.40602 3.03871 5.99043 
5.78684 5.16096 5.4537 
0.934537 3.29125 3.61421 
0.562682 5.62774 3.24564 
2.5384 0.539702 2.09577 
