
256 atoms
1 atom types	

0.0 6.3299 xlo xhi
0.0 6.3299 ylo yhi
0.0 6.3299 zlo zhi

Masses

1 1.0

Atoms				

1	1	0.77458	0.74142	4.7482
2	1	2.7203	2.1058	1.1098
3	1	1.5918	0.20661	1.4128
4	1	5.1516	2.0829	2.0145
5	1	1.3954	3.9894	5.2966
6	1	2.9207	5.3213	4.8073
7	1	1.882	4.1419	2.4953
8	1	4.0057	3.4285	4.8894
9	1	5.8028	4.8845	3.245
10	1	0.14857	1.253	1.7085
11	1	0.13491	0.077351	4.075
12	1	1.7751	0.40141	5.8856
13	1	5.3325	6.1637	5.794
14	1	0.0088718	3.8897	3.6095
15	1	2.5771	3.9129	1.6259
16	1	0.21764	2.2819	3.5423
17	1	3.6465	3.6564	3.8499
18	1	5.7667	2.0335	4.3552
19	1	3.4989	5.6392	2.7391
20	1	1.7602	2.2455	5.4825
21	1	1.4944	3.7284	1.4951
22	1	3.1271	4.5775	4.0265
23	1	5.5452	3.0819	2.0992
24	1	1.1282	2.9432	0.69599
25	1	4.2298	4.367	4.3479
26	1	4.3183	3.635	1.1495
27	1	5.0724	2.8365	1.1539
28	1	3.1972	3.3188	0.91566
29	1	0.44837	6.2495	2.26
30	1	3.9432	2.611	1.0949
31	1	3.4311	6.255	4.6985
32	1	1.8574	4.8401	3.7463
33	1	0.079366	4.3701	5.3496
34	1	6.0381	3.7802	0.34424
35	1	1.9868	5.6731	4.3842
36	1	1.7266	3.2326	3.1853
37	1	3.1746	2.699	1.8594
38	1	2.9694	1.9586	3.7983
39	1	6.0548	1.021	0.75045
40	1	1.4486	1.7066	4.6289
41	1	4.3778	2.3846	4.7095
42	1	4.9014	5.0969	3.8554
43	1	2.5089	5.9487	1.3468
44	1	4.6632	0.84821	0.71026
45	1	3.0826	0.62399	1.1396
46	1	1.7778	2.8856	2.1047
47	1	1.0404	1.8776	1.9435
48	1	1.9119	5.2713	5.3777
49	1	2.1709	3.0403	1.0383
50	1	3.386	6.2525	1.8597
51	1	4.0965	1.6072	3.7525
52	1	4.2129	1.6244	0.018144
53	1	1.2962	5.8103	6.0601
54	1	2.2394	0.32769	0.55081
55	1	2.1606	2.1949	0.15552
56	1	0.062241	0.10567	0.31276
57	1	5.7725	1.2613	2.502
58	1	5.6097	3.9114	2.8054
59	1	0.42714	1.7684	4.4938
60	1	2.6628	3.3484	2.5473
61	1	0.29876	4.4229	2.7544
62	1	4.4111	6.0288	5.2045
63	1	2.5584	0.19457	4.0547
64	1	4.6485	5.4885	0.67573
65	1	1.3145	2.2099	3.7129
66	1	3.3471	5.9722	5.7411
67	1	3.7049	0.71667	0.24619
68	1	2.5196	5.8778	2.4284
69	1	3.8963	2.4916	5.6616
70	1	3.8455	4.7165	2.2048
71	1	5.5399	5.8478	4.6548
72	1	5.0004	3.5772	0.33069
73	1	0.6059	1.099	0.17667
74	1	5.6149	4.6364	2.0061
75	1	3.2041	6.1304	0.47449
76	1	5.3465	4.3115	5.9503
77	1	4.6828	1.1799	2.3821
78	1	5.3279	1.1189	1.5198
79	1	0.44622	1.5129	2.7653
80	1	3.8649	2.6182	3.7752
81	1	1.8957	0.78173	4.89
82	1	0.90616	4.5455	1.8288
83	1	4.9213	3.0938	2.9963
84	1	2.7624	5.1593	0.63132
85	1	0.6792	3.9299	6.2271
86	1	1.23	1.306	5.6181
87	1	4.1048	0.71696	4.5068
88	1	1.6177	3.8283	0.38541
89	1	5.8246	3.4021	5.6686
90	1	2.1608	1.1694	1.2447
91	1	3.277	0.92638	3.8186
92	1	2.8951	3.0037	3.515
93	1	5.316	2.911	4.8022
94	1	5.0514	3.9792	4.9224
95	1	0.18654	1.3278	5.4779
96	1	3.731	5.253	0.12728
97	1	2.1632	3.1878	5.1964
98	1	0.23892	5.7252	5.8516
99	1	1.8769	4.8401	0.02904
100	1	5.3153	4.0991	3.8373
101	1	0.4889	2.0772	0.99373
102	1	2.348	5.8673	6.2147
103	1	4.4341	4.0183	3.2135
104	1	0.99308	5.7153	3.9262
105	1	2.6363	1.3304	2.914
106	1	1.1297	4.1491	3.4064
107	1	5.5883	5.8908	3.5778
108	1	1.1152	5.1521	2.9195
109	1	2.7695	3.6056	4.4373
110	1	3.6912	6.2297	3.6565
111	1	3.9132	5.3844	4.3346
112	1	4.6513	3.3242	4.0553
113	1	2.3732	4.0859	5.7601
114	1	5.1083	0.47797	4.9516
115	1	2.598	4.1141	0.53783
116	1	1.2046	6.094	5.0061
117	1	2.1707	2.657	4.2058
118	1	4.377	1.4556	5.3045
119	1	3.3614	1.483	5.7511
120	1	3.3323	4.1332	2.9311
121	1	2.7875	1.3295	0.34371
122	1	0.70372	0.35642	5.7785
123	1	5.2749	5.5326	1.5084
124	1	5.5786	5.7219	2.5131
125	1	3.9281	4.9322	3.3745
126	1	0.13629	5.2504	2.1368
127	1	1.1602	0.23348	0.43848
128	1	2.5017	1.7956	4.7615
129	1	3.5989	3.6935	1.9416
130	1	5.4134	0.53258	3.8743
131	1	1.7031	3.681	4.2218
132	1	4.7141	3.914	2.1685
133	1	0.7056	2.2791	5.4344
134	1	5.1774	0.33612	2.8047
135	1	6.0467	0.98299	4.5801
136	1	4.5881	4.6839	1.4194
137	1	4.4169	2.9011	2.0191
138	1	2.4791	3.1844	0
139	1	3.2253	2.6785	4.6647
140	1	4.3666	4.4292	0.36256
141	1	6.2395	5.8043	1.2482
142	1	4.7272	3.2723	5.691
143	1	3.8073	3.1643	2.8587
144	1	3.7058	1.2186	2.8088
145	1	0.012901	3.7964	1.9218
146	1	1.9478	0.51852	3.0692
147	1	4.6479	6.1589	4.1604
148	1	5.8938	0.29705	1.9031
149	1	4.8452	0.19433	1.7746
150	1	1.0013	4.6621	0.66334
151	1	0.3957	4.8497	3.8462
152	1	0.49026	0.31751	1.2803
153	1	2.2315	4.489	4.722
154	1	1.225	2.8352	4.6851
155	1	4.4079	2.1559	2.8691
156	1	6.012	3.7192	4.6114
157	1	1.9022	5.8316	3.3237
158	1	5.4379	3.8366	1.3107
159	1	4.2861	6.1911	6.2876
160	1	2.422	3.9803	3.4647
161	1	3.2125	3.3655	5.5887
162	1	0.61128	5.5954	0.50549
163	1	0.15546	2.7967	4.5083
164	1	5.6194	2.7076	0.16493
165	1	3.6437	1.5702	0.9386
166	1	5.1066	1.411	3.3214
167	1	3.3161	2.3797	0.23141
168	1	2.9617	0.82878	4.9308
169	1	1.078	2.0779	0.06571
170	1	6.1396	1.311	3.5859
171	1	4.5708	5.8304	3.1265
172	1	4.6796	1.8419	1.0584
173	1	2.576	4.9107	2.8929
174	1	4.7572	5.2247	5.9976
175	1	5.3866	4.663	0.64328
176	1	0.69228	3.9637	4.4567
177	1	4.1008	0	1.022
178	1	1.8066	5.1501	2.0947
179	1	2.8493	5.03	5.8366
180	1	0.3143	2.9104	6.3291
181	1	1.6247	2.0957	1.0833
182	1	4.352	5.6432	2.0477
183	1	0.50347	3.3506	5.3404
184	1	3.4008	4.2451	6.2258
185	1	5.8621	0.75196	6.0633
186	1	1.6958	1.2151	0.26262
187	1	4.4022	0.63729	3.4813
188	1	3.0421	0.31833	2.9326
189	1	3.9994	0.8583	1.6497
190	1	0.74015	2.9116	1.7036
191	1	6.2993	1.8969	0.032656
192	1	1.6945	5.6541	0.72411
193	1	2.8403	0.50378	5.9979
194	1	1.9372	4.676	1.1653
195	1	0.94123	4.8693	5.7556
196	1	4.7944	0.75157	5.9904
197	1	6.0132	2.3608	5.4239
198	1	5.7236	5.5971	0.26651
199	1	1.4888	6.1299	2.3826
200	1	4.9353	1.389	4.3859
201	1	1.0923	0.79415	2.1956
202	1	1.5268	1.509	2.8923
203	1	4.572	2.5722	0.24268
204	1	5.2797	1.6097	0.15422
205	1	0.90838	1.1693	3.7302
206	1	0.95402	3.6036	2.4847
207	1	3.8417	0.54513	5.5289
208	1	2.1404	1.8794	2.0585
209	1	3.563	1.6681	4.6723
210	1	3.0753	1.3967	1.9068
211	1	0.26681	5.5075	4.7754
212	1	4.9231	2.3357	3.7955
213	1	6.1645	2.9945	1.1198
214	1	4.2865	4.2257	5.6307
215	1	3.5062	4.3669	1.0637
216	1	2.2164	2.3144	3.0549
217	1	1.0877	1.1632	1.1389
218	1	2.299	1.3684	5.7206
219	1	5.7651	2.0039	1.0764
220	1	1.4962	0.29427	4.0546
221	1	2.8487	4.9745	1.802
222	1	3.2957	2.2138	2.8005
223	1	3.8503	5.1386	5.3801
224	1	0.95582	2.5401	2.7616
225	1	3.2941	4.2985	5.0733
226	1	3.9997	1.9151	1.9247
227	1	2.0926	1.2598	3.8709
228	1	0.97355	5.6138	1.5291
229	1	2.8006	2.3807	5.6254
230	1	5.8278	4.7991	4.4618
231	1	0	4.7073	1.1648
232	1	4.8386	4.8802	2.7041
233	1	2.4308	6.232	5.1793
234	1	3.9161	3.3675	0.10582
235	1	6.2004	0.14231	5.1883
236	1	0.90076	0.21448	3.1865
237	1	5.6533	2.2721	2.9592
238	1	5.4223	0.10712	0.84968
239	1	4.087	0.24372	2.5582
240	1	5.7314	3.0394	3.7583
241	1	4.9727	2.2678	5.6627
242	1	6.2921	2.2606	2.0598
243	1	0.014851	4.7707	0.039539
244	1	4.8357	5.0483	4.9329
245	1	0.54677	3.7753	0.99091
246	1	1.1908	4.9066	4.6507
247	1	6.2021	0.38659	3.034
248	1	3.673	5.3969	1.2313
249	1	5.4646	1.4182	5.3461
250	1	2.8792	5.5576	3.708
251	1	0.029548	3.1153	2.8228
252	1	1.3731	3.0942	5.9758
253	1	5.7457	5.1979	5.5032
254	1	0.79385	3.1671	3.7015
255	1	0.20487	5.6866	3.1562
256	1	2.402	0.54294	2.0726
