
#------------ NVE rescale -----------------------------------------
	velocity 	all create ${T_run} ${seed} rot yes dist gaussian
	velocity 	all create 0.04133683832 ${seed} rot yes dist gaussian
	velocity 	all create 0.04133683832 1111 rot yes dist gaussian
	fix 		1 all nve
	fix 		2 all temp/rescale 1 ${T_run} ${T_run} 0.01 1.0
	fix 		2 all temp/rescale 1 0.04133683832 ${T_run} 0.01 1.0
	fix 		2 all temp/rescale 1 0.04133683832 0.04133683832 0.01 1.0
	timestep	${dt}
	timestep	0.002
	thermo_style  	custom step temp press etotal vol
	thermo		1000
	run             100000	
Memory usage per processor = 1.37387 Mbytes
Step Temp Press TotEng Volume 
       0  0.041336838  -0.29790553   -6.8124467    253.62412 
    1000  0.037300159 -0.010117369    -6.764852    253.62412 
    2000  0.041138088 -0.040514557   -6.7648574    253.62412 
    3000  0.041599924 -0.054450413   -6.7648571    253.62412 
    4000  0.041769029 -0.045809393   -6.7648591    253.62412 
    5000  0.039602301 -0.037421609   -6.7648555    253.62412 
    6000  0.039857036   -0.0245062   -6.7648522    253.62412 
    7000  0.039498727 -0.024712572    -6.764852    253.62412 
    8000  0.037441315 -0.0040075883   -6.7648525    253.62412 
    9000  0.037729761 -0.0046146203   -6.7648537    253.62412 
   10000  0.038183088 0.00057049286   -6.7648518    253.62412 
   11000  0.037629789 -0.0035564498   -6.7648516    253.62412 
   12000  0.037154043 -0.015603401   -6.7648527    253.62412 
   13000  0.039344583 0.0022932498   -6.7648558    253.62412 
   14000  0.037729936 -0.0076084889   -6.7648532    253.62412 
   15000  0.043143657 -0.053366831   -6.7648542    253.62412 
   16000  0.036796664 -0.0070690898    -6.764855    253.62412 
   17000  0.038743385 -0.014366525   -6.7648594    253.62412 
   18000  0.039570989 -0.032961755   -6.7648572    253.62412 
   19000  0.034475026  0.011603764   -6.7648565    253.62412 
   20000  0.035815535 0.0046605687   -6.7648583    253.62412 
   21000  0.037664547 0.0071727776   -6.7648554    253.62412 
   22000  0.038706711 -0.016214535   -6.7648576    253.62412 
   23000  0.035584658 0.0087756165   -6.7648536    253.62412 
   24000  0.042346631 -0.032992612   -6.7648569    253.62412 
   25000  0.039527865 -0.028102061   -6.7648552    253.62412 
   26000  0.039294382 -0.0021431852   -6.7648483    253.62412 
   27000  0.037064138 -0.021124115   -6.7648507    253.62412 
   28000  0.037796505 -0.017727315   -6.7648501    253.62412 
   29000  0.036534803 0.0079285281   -6.7648494    253.62412 
   30000  0.038108792 -0.0054265072   -6.7648509    253.62412 
   31000  0.037191288 -7.0140144e-05   -6.7648465    253.62412 
   32000  0.040916242 -0.027602596   -6.7648494    253.62412 
   33000  0.038724247 -0.013472292    -6.764844    253.62412 
   34000  0.041925494 -0.039059406   -6.7648446    253.62412 
   35000  0.040402767 -0.029663406   -6.7648457    253.62412 
   36000  0.039809354 -0.015936498   -6.7648465    253.62412 
   37000  0.039823215 -0.0085988632   -6.7648495    253.62412 
   38000  0.038779971 -0.022023094   -6.7648533    253.62412 
   39000  0.038396536 -0.0033000876   -6.7648573    253.62412 
   40000  0.037436278 -0.021179103    -6.764858    253.62412 
   41000  0.039640009 -0.025002125   -6.7648585    253.62412 
   42000  0.039316956 0.0014690438   -6.7648601    253.62412 
   43000  0.039765335  0.001341626   -6.7648645    253.62412 
   44000  0.038092239 -0.0080845183   -6.7648628    253.62412 
   45000  0.038085251 -0.012827575   -6.7648627    253.62412 
   46000  0.040613486 -0.0084023331   -6.7648644    253.62412 
   47000  0.040275432 -0.023720691   -6.7648663    253.62412 
   48000   0.03887945 -0.0043004643   -6.7648625    253.62412 
   49000  0.042464232 -0.044484478   -6.7648589    253.62412 
   50000  0.037986394 -0.0076685224   -6.7648559    253.62412 
   51000  0.038696965 -0.0078560233   -6.7648531    253.62412 
   52000  0.039782071 -0.040099657   -6.7648518    253.62412 
   53000  0.040142356 -0.026422726   -6.7648523    253.62412 
   54000   0.03981066 -0.038266873   -6.7648525    253.62412 
   55000  0.038327171 -0.012976449   -6.7648532    253.62412 
   56000  0.040931053 -0.025063862   -6.7648503    253.62412 
   57000  0.039184134  -0.00492129   -6.7648491    253.62412 
   58000  0.038344093 -0.030280044    -6.764851    253.62412 
   59000  0.038221518  -0.02492544   -6.7648547    253.62412 
   60000   0.03718085 -0.0079662956   -6.7648542    253.62412 
   61000  0.039909166 -0.025655814   -6.7648563    253.62412 
   62000  0.038469281 -0.0093006293   -6.7648557    253.62412 
   63000  0.038852909 -0.015839615   -6.7648571    253.62412 
   64000  0.041935162 -0.025948606   -6.7648574    253.62412 
   65000  0.034374434  0.020598437   -6.7648566    253.62412 
   66000  0.038889064 -0.012159251   -6.7648593    253.62412 
   67000  0.039436896 -0.043259185   -6.7648596    253.62412 
   68000  0.036667911  0.020253736   -6.7648592    253.62412 
   69000  0.040952226 -0.033674762   -6.7648598    253.62412 
   70000  0.038977597 -0.024205168   -6.7648626    253.62412 
   71000  0.039516606 -0.022986932   -6.7648615    253.62412 
   72000  0.037309398 -0.012201679   -6.7648619    253.62412 
   73000  0.039427956 -0.010753608   -6.7648634    253.62412 
   74000  0.037602841 -0.023691407   -6.7648666    253.62412 
   75000  0.040975697 -0.034276059   -6.7648672    253.62412 
   76000  0.043497887 -0.051276751   -6.7648673    253.62412 
   77000  0.039929582 -0.051407141   -6.7648626    253.62412 
   78000   0.04073138 -0.015989823   -6.7648639    253.62412 
   79000  0.037797631 0.0030335841    -6.764863    253.62412 
   80000  0.040601608 -0.023899984   -6.7648614    253.62412 
   81000  0.037282635 0.00061036653   -6.7648661    253.62412 
   82000  0.039045329 -0.029927073   -6.7648699    253.62412 
   83000  0.038756307 -0.028585035   -6.7648741    253.62412 
   84000  0.038995698 -0.018822373   -6.7648746    253.62412 
   85000  0.040056723 -0.0084086771   -6.7648755    253.62412 
   86000  0.039184488 0.0020148789   -6.7648731    253.62412 
   87000  0.040355232 -0.043545861   -6.7648693    253.62412 
   88000  0.039482572  -0.03762932   -6.7648701    253.62412 
   89000  0.038354696 -0.027729512   -6.7648672    253.62412 
   90000  0.038910276 -0.027900132   -6.7648684    253.62412 
   91000  0.038500442 -0.012544473   -6.7648648    253.62412 
   92000  0.039428405 -0.020618482   -6.7648618    253.62412 
   93000  0.037478499  0.018599914   -6.7648608    253.62412 
   94000  0.040146946 -0.028995375   -6.7648596    253.62412 
   95000   0.04151546 -0.032715658   -6.7648601    253.62412 
   96000  0.038261855 -0.003380602   -6.7648573    253.62412 
   97000  0.038103053 -0.0088363761    -6.764858    253.62412 
   98000   0.03897117 -0.0059684539   -6.7648583    253.62412 
   99000   0.03938742 -0.012464356   -6.7648603    253.62412 
  100000  0.037338666 -0.0059797201   -6.7648586    253.62412 
Loop time of 27.647 on 1 procs for 100000 steps with 256 atoms

Pair  time (%) = 25.2259 (91.2428)
Neigh time (%) = 0.162489 (0.587726)
Comm  time (%) = 1.22809 (4.44203)
Outpt time (%) = 0.00399113 (0.014436)
Other time (%) = 1.02654 (3.71304)

Nlocal:    256 ave 256 max 256 min
Histogram: 1 0 0 0 0 0 0 0 0 0
Nghost:    1469 ave 1469 max 1469 min
Histogram: 1 0 0 0 0 0 0 0 0 0
Neighs:    11559 ave 11559 max 11559 min
Histogram: 1 0 0 0 0 0 0 0 0 0

Total # of neighbors = 11559
Ave neighs/atom = 45.1523
Neighbor list builds = 261
Dangerous builds = 0
#	run             1000
	unfix 		1
	unfix 		2
#------------ NVE -----------------------------------------------------------------------------	
	fix 		1 all nve
	timestep	${dt}
	timestep	0.002
	fix		myave all ave/atom 1 10000 100000 x y z
	dump		1 all custom 500000 x.dump f_myave[1] f_myave[2] f_myave[3]
	dump_modify 	1 sort id
	thermo_style  	custom step temp press etotal vol
	thermo		1000
	run             500000	
Memory usage per processor = 1.60862 Mbytes
Step Temp Press TotEng Volume 
  100000  0.037338666 -0.0059797201   -6.7648586    253.62412 
  101000  0.039589952 -0.010762286   -6.7648589    253.62412 
  102000  0.040377424 -0.019542865   -6.7648621    253.62412 
  103000  0.038654616 -0.014825965   -6.7648608    253.62412 
  104000  0.038125182 -0.018122464   -6.7648626    253.62412 
  105000  0.039985603 -0.039166229   -6.7648601    253.62412 
  106000  0.038013828 0.0097830824   -6.7648598    253.62412 
  107000  0.040424789 -0.027014392   -6.7648572    253.62412 
  108000  0.038756668 -0.029540955   -6.7648504    253.62412 
  109000  0.039232764 -0.014406302   -6.7648481    253.62412 
  110000  0.039556405  0.010652061   -6.7648478    253.62412 
  111000  0.039391627 -0.0016707257   -6.7648458    253.62412 
  112000  0.036629569 -0.0059049556   -6.7648437    253.62412 
  113000  0.038351188 -0.024564274   -6.7648435    253.62412 
  114000  0.039483396 -0.043819154   -6.7648459    253.62412 
  115000  0.040681822 -0.024973574   -6.7648466    253.62412 
  116000  0.038489218 -0.0072176423   -6.7648474    253.62412 
  117000  0.039031182 -0.010323482   -6.7648497    253.62412 
  118000  0.039115294 -0.018383068   -6.7648496    253.62412 
  119000  0.039753735 -0.0057086737   -6.7648438    253.62412 
  120000  0.038808961   -0.0240752    -6.764844    253.62412 
  121000  0.039871072 -0.018094935   -6.7648458    253.62412 
  122000  0.039981443  -0.01587337   -6.7648456    253.62412 
  123000  0.038860007 -0.0077639176   -6.7648423    253.62412 
  124000  0.040679374 -0.034397619   -6.7648409    253.62412 
  125000  0.042077511 -0.035203075   -6.7648422    253.62412 
  126000  0.037920236 -0.019474482   -6.7648438    253.62412 
  127000  0.039396785 -0.033428499   -6.7648419    253.62412 
  128000  0.038657306 -0.021803974   -6.7648417    253.62412 
  129000  0.040103737 -0.020462752   -6.7648458    253.62412 
  130000  0.037931472 -0.017584665   -6.7648424    253.62412 
  131000  0.039230166 -0.0027648668   -6.7648455    253.62412 
  132000  0.038448249 -0.014521679   -6.7648446    253.62412 
  133000  0.040564169 -0.014229413    -6.764844    253.62412 
  134000  0.038359257 -0.007283282   -6.7648413    253.62412 
  135000  0.037698834 -0.016552956   -6.7648395    253.62412 
  136000   0.03993127 -0.025342722   -6.7648415    253.62412 
  137000  0.039830655 -0.038185232   -6.7648422    253.62412 
  138000  0.040057579  -0.02612706   -6.7648409    253.62412 
  139000  0.039675513 -0.021303789   -6.7648378    253.62412 
  140000  0.038433523 -0.0066888612   -6.7648383    253.62412 
  141000  0.039112577 -0.026146244   -6.7648428    253.62412 
  142000  0.037847107 -0.0040867269   -6.7648405    253.62412 
  143000   0.03887005 0.0097969336   -6.7648441    253.62412 
  144000  0.039042114 -0.016439724   -6.7648451    253.62412 
  145000  0.037949845 -0.015723461   -6.7648445    253.62412 
  146000  0.040131116 -0.015575833   -6.7648464    253.62412 
  147000  0.036227575  0.013970354   -6.7648478    253.62412 
  148000  0.040049284 -0.041957081   -6.7648484    253.62412 
  149000  0.039911604 -0.014156004   -6.7648487    253.62412 
  150000  0.039389635 -0.029190101   -6.7648452    253.62412 
  151000  0.039871242 -0.025409691    -6.764845    253.62412 
  152000  0.039495186 -0.018560829   -6.7648423    253.62412 
  153000  0.040849165   -0.0398008   -6.7648464    253.62412 
  154000  0.040184796  -0.01332117   -6.7648427    253.62412 
  155000  0.041795602 -0.035153925   -6.7648429    253.62412 
  156000   0.03858771 -0.010776119   -6.7648385    253.62412 
  157000  0.037608588 -0.018894138   -6.7648354    253.62412 
  158000  0.039532097 -0.006257112   -6.7648338    253.62412 
  159000  0.037199164   -0.0155794   -6.7648339    253.62412 
  160000  0.038341992 -0.012394686   -6.7648363    253.62412 
  161000  0.039600484 -0.020452472   -6.7648359    253.62412 
  162000   0.04015521 -0.024301768   -6.7648358    253.62412 
  163000  0.037503213 -0.006522911   -6.7648295    253.62412 
  164000  0.040457315 -0.022253914   -6.7648316    253.62412 
  165000  0.037881236 -0.022596451   -6.7648332    253.62412 
  166000  0.036750966  0.010746883   -6.7648298    253.62412 
  167000  0.038855043 -0.030130914    -6.764831    253.62412 
  168000  0.040062242  -0.02160303   -6.7648305    253.62412 
  169000  0.039908961 -0.021575663   -6.7648303    253.62412 
  170000  0.037853274 -0.015059565    -6.764834    253.62412 
  171000  0.040098393 -0.022019606   -6.7648359    253.62412 
  172000  0.041036791 -0.023424198   -6.7648347    253.62412 
  173000  0.039878988 -0.034085016   -6.7648279    253.62412 
  174000  0.038567581 -0.015579241   -6.7648256    253.62412 
  175000  0.037542689 -0.0031228255   -6.7648227    253.62412 
  176000  0.039259523 -0.021561091    -6.764829    253.62412 
  177000  0.038108747 -0.040414229   -6.7648335    253.62412 
  178000  0.039200055 -0.011520594   -6.7648305    253.62412 
  179000  0.038428533 -0.032771412   -6.7648329    253.62412 
  180000  0.040560495 -0.030226934   -6.7648356    253.62412 
  181000  0.038651842 -0.017394556   -6.7648338    253.62412 
  182000  0.037415667 -0.011057743   -6.7648287    253.62412 
  183000   0.04054276 -0.050840622   -6.7648314    253.62412 
  184000  0.037671604 0.0012756845    -6.764832    253.62412 
  185000  0.041370703 -0.034196832   -6.7648331    253.62412 
  186000  0.038439151 -0.019227321   -6.7648295    253.62412 
  187000  0.037258247  0.006416519   -6.7648273    253.62412 
  188000  0.039018336 -0.013222674   -6.7648275    253.62412 
  189000  0.040159103  -0.02249799    -6.764828    253.62412 
  190000  0.037397544  -0.01375707   -6.7648279    253.62412 
  191000  0.040356867 -0.012498835   -6.7648258    253.62412 
  192000  0.039001738   -0.0114308   -6.7648252    253.62412 
  193000  0.038779834  -0.02423566   -6.7648273    253.62412 
  194000  0.038944826 -0.026664056   -6.7648285    253.62412 
  195000   0.03948576 -0.012981619   -6.7648272    253.62412 
  196000  0.039325675 -0.027324362   -6.7648241    253.62412 
  197000  0.037288438 -0.016934995   -6.7648258    253.62412 
  198000  0.037849866 -0.010780587   -6.7648241    253.62412 
  199000  0.038764574 -0.028907357   -6.7648262    253.62412 
  200000   0.03953612 -0.023015555   -6.7648308    253.62412 
  201000  0.038149067 -0.022815568   -6.7648322    253.62412 
  202000  0.038526366 -0.010104552    -6.764832    253.62412 
  203000  0.038506731 -0.024677265   -6.7648285    253.62412 
  204000  0.038110738 -0.028723529   -6.7648298    253.62412 
  205000  0.040247592 -0.032962966   -6.7648307    253.62412 
  206000  0.038068034 -0.005998976   -6.7648282    253.62412 
  207000  0.039120236 -0.022394632   -6.7648282    253.62412 
  208000  0.040466599 -0.013624621   -6.7648321    253.62412 
  209000  0.040336702  -0.02394243   -6.7648318    253.62412 
  210000  0.039706529 -0.013141284   -6.7648329    253.62412 
  211000   0.04077376 -0.024925784   -6.7648334    253.62412 
  212000    0.0394545 -0.0095424075   -6.7648352    253.62412 
  213000  0.039781023 -0.016804294   -6.7648358    253.62412 
  214000   0.03847614  -0.01244398     -6.76484    253.62412 
  215000  0.038814376 -0.013231041   -6.7648413    253.62412 
  216000   0.03656409 -0.0037922878   -6.7648383    253.62412 
  217000  0.040034182 -0.022074901   -6.7648439    253.62412 
  218000  0.037371973 -0.00094834683   -6.7648397    253.62412 
  219000  0.039640496 -0.036120786    -6.764838    253.62412 
  220000  0.041144793 -0.041860164   -6.7648345    253.62412 
  221000  0.039447463 -0.016990065   -6.7648324    253.62412 
  222000  0.037280222 0.0032751544   -6.7648265    253.62412 
  223000  0.040758675 -0.032220575   -6.7648256    253.62412 
  224000  0.038555787 -0.0071204249   -6.7648265    253.62412 
  225000  0.036359938 0.0052994896   -6.7648249    253.62412 
  226000  0.038626762 -0.020441982   -6.7648233    253.62412 
  227000  0.039515777  -0.03097861   -6.7648226    253.62412 
  228000  0.040484888 -0.022372167   -6.7648244    253.62412 
  229000  0.039740853 -0.022690764   -6.7648241    253.62412 
  230000  0.038157105 -0.0024301154   -6.7648238    253.62412 
  231000  0.040811491 -0.032604347   -6.7648207    253.62412 
  232000  0.038523575 -0.0032411943   -6.7648232    253.62412 
  233000  0.039448248 -0.014480455   -6.7648204    253.62412 
  234000  0.038565184 -0.015332332   -6.7648165    253.62412 
  235000   0.03998967 -0.0099106545   -6.7648189    253.62412 
  236000  0.041821576 -0.030943201    -6.764822    253.62412 
  237000  0.039554298 -0.032289656   -6.7648194    253.62412 
  238000  0.038933173 -0.023945513   -6.7648216    253.62412 
  239000  0.042747805 -0.047641686   -6.7648268    253.62412 
  240000   0.03910994 -0.026030789   -6.7648266    253.62412 
  241000  0.038559042 -0.043693715   -6.7648269    253.62412 
  242000   0.03902926 -0.014964226   -6.7648299    253.62412 
  243000  0.037226594 -0.0058070652   -6.7648299    253.62412 
  244000  0.036878946 0.0035461123   -6.7648281    253.62412 
  245000  0.038737438 -0.021035906   -6.7648321    253.62412 
  246000   0.03904345 -0.028210065   -6.7648306    253.62412 
  247000  0.039501032 -0.015230762   -6.7648304    253.62412 
  248000  0.038979567 -0.010968044   -6.7648371    253.62412 
  249000  0.040644719 -0.034466002    -6.764843    253.62412 
  250000  0.038355547 -0.0097535807   -6.7648415    253.62412 
  251000  0.040314114   -0.0119117   -6.7648425    253.62412 
  252000  0.039391591 -0.018095099   -6.7648425    253.62412 
  253000  0.038174651 -0.029332531   -6.7648416    253.62412 
  254000  0.039199876 -0.022152151   -6.7648446    253.62412 
  255000  0.038673127 -0.028425094   -6.7648451    253.62412 
  256000  0.036515706 -0.0043285689    -6.764841    253.62412 
  257000   0.04056586  -0.03642755   -6.7648455    253.62412 
  258000  0.037627763 -0.012829126   -6.7648417    253.62412 
  259000  0.038845426   -0.0340237   -6.7648452    253.62412 
  260000  0.041163701 -0.031433557   -6.7648469    253.62412 
  261000  0.037065767 -0.0055741051   -6.7648458    253.62412 
  262000  0.037468932 -0.010237371   -6.7648477    253.62412 
  263000  0.039513125 -0.0094614717   -6.7648466    253.62412 
  264000  0.038921895 0.0070129809   -6.7648431    253.62412 
  265000   0.03828239 0.0017985597   -6.7648424    253.62412 
  266000  0.041233349 -0.021877184   -6.7648449    253.62412 
  267000   0.03981503  -0.02537754   -6.7648431    253.62412 
  268000  0.036337553  0.014204001   -6.7648422    253.62412 
  269000  0.039348382 -0.041430875   -6.7648392    253.62412 
  270000   0.03941408 -0.019854886   -6.7648365    253.62412 
  271000  0.040071688 -0.039581703   -6.7648374    253.62412 
  272000  0.038616856 -0.019821887   -6.7648383    253.62412 
  273000   0.04028988 -0.033479483   -6.7648394    253.62412 
  274000  0.038303471 -0.013559484   -6.7648363    253.62412 
  275000  0.038640725 -0.0084731761   -6.7648365    253.62412 
  276000   0.03820897 -0.010106153   -6.7648337    253.62412 
  277000  0.039586142  -0.01613936   -6.7648329    253.62412 
  278000  0.038143043 -0.0044477394   -6.7648295    253.62412 
  279000  0.036872653 -0.0027312486   -6.7648316    253.62412 
  280000  0.038834732 -0.0064294866     -6.76483    253.62412 
  281000   0.03772517 -0.0057270892   -6.7648307    253.62412 
  282000   0.03613857 -5.9355161e-05   -6.7648282    253.62412 
  283000  0.036528699  0.014031234   -6.7648231    253.62412 
  284000  0.039295899 -0.0098112819   -6.7648282    253.62412 
  285000  0.037226527 -0.0063211829   -6.7648276    253.62412 
  286000  0.039764725 -0.011210937   -6.7648267    253.62412 
  287000  0.036853384 -0.0065520425    -6.764825    253.62412 
  288000   0.03875722 -0.0084288216   -6.7648267    253.62412 
  289000  0.039424276  -0.01574097   -6.7648239    253.62412 
  290000  0.036103824 0.0074932811   -6.7648231    253.62412 
  291000  0.039899053 -0.012002342   -6.7648248    253.62412 
  292000  0.035679352  0.010513592   -6.7648229    253.62412 
  293000  0.040466719 -0.028749809   -6.7648245    253.62412 
  294000  0.039763796 -0.014141355    -6.764824    253.62412 
  295000   0.03859767 -0.00017248445   -6.7648195    253.62412 
  296000  0.037182027 -2.0650638e-05    -6.764817    253.62412 
  297000   0.03834733 -0.012216931   -6.7648196    253.62412 
  298000  0.037220415  0.031572049   -6.7648174    253.62412 
  299000  0.039356582 -0.008300506   -6.7648173    253.62412 
  300000  0.036607631 -0.0058876066   -6.7648155    253.62412 
  301000   0.04175492 -0.037225843   -6.7648169    253.62412 
  302000  0.039018902 -0.0049112163    -6.764813    253.62412 
  303000  0.038039467 -0.0079791871   -6.7648096    253.62412 
  304000  0.039165952 -0.011491413   -6.7648106    253.62412 
  305000  0.039961909 -0.027775384   -6.7648103    253.62412 
  306000   0.04009594 -0.034286498   -6.7648112    253.62412 
  307000  0.038438587 -0.023869597   -6.7648112    253.62412 
  308000  0.038512306 -0.011360633   -6.7648112    253.62412 
  309000   0.03917809 -0.030270505   -6.7648104    253.62412 
  310000  0.037860603 -0.013899422   -6.7648079    253.62412 
  311000  0.037726463 -0.0049051087   -6.7648084    253.62412 
  312000   0.03802772 -0.0040849147   -6.7648055    253.62412 
  313000  0.038710037 -0.012378153   -6.7648037    253.62412 
  314000  0.039702767 -0.025248587   -6.7648071    253.62412 
  315000  0.037568394 -0.0097677726     -6.76481    253.62412 
  316000  0.039027803 0.00022970922   -6.7648104    253.62412 
  317000  0.039880814 -0.032877581     -6.76481    253.62412 
  318000  0.039509586 -0.020820804    -6.764808    253.62412 
  319000  0.037332339 -0.0017659196   -6.7648092    253.62412 
  320000  0.039891098 -0.011109814   -6.7648129    253.62412 
  321000  0.039537407 -0.010674206   -6.7648108    253.62412 
  322000  0.039694098 -0.031065271   -6.7648106    253.62412 
  323000  0.038851735 -0.0055127342   -6.7648103    253.62412 
  324000  0.039787214 -0.022918385   -6.7648109    253.62412 
  325000  0.040905545 -0.038767111   -6.7648155    253.62412 
  326000   0.03932854 -0.025506179   -6.7648158    253.62412 
  327000  0.037579169 -0.0063951668   -6.7648144    253.62412 
  328000  0.038707051 -0.013963221   -6.7648171    253.62412 
  329000  0.039139274 -0.022969505   -6.7648201    253.62412 
  330000  0.038791207 -0.030607749   -6.7648214    253.62412 
  331000  0.038433562 -3.0225125e-05   -6.7648205    253.62412 
  332000  0.038497989 -0.030388837   -6.7648267    253.62412 
  333000  0.040517073 -0.031497704   -6.7648247    253.62412 
  334000  0.039074099 -0.016222403   -6.7648272    253.62412 
  335000  0.037188999 -0.014761377   -6.7648282    253.62412 
  336000  0.040045724 -0.019517467   -6.7648313    253.62412 
  337000  0.038941172 -0.0047681212   -6.7648307    253.62412 
  338000  0.038731292 -0.026253566   -6.7648303    253.62412 
  339000  0.038458075 -0.022147328   -6.7648277    253.62412 
  340000  0.037480457 -0.017251546   -6.7648281    253.62412 
  341000  0.039850804  -0.02892935   -6.7648318    253.62412 
  342000  0.038761951 -0.0056537579   -6.7648307    253.62412 
  343000  0.039364661 -0.028327367   -6.7648299    253.62412 
  344000  0.037629221 -0.015603577   -6.7648313    253.62412 
  345000   0.03803842 -0.007066817    -6.764833    253.62412 
  346000  0.040941726 -0.037768285   -6.7648333    253.62412 
  347000  0.039996847 -0.020848371   -6.7648339    253.62412 
  348000  0.038876179 -0.018654579   -6.7648329    253.62412 
  349000  0.041226529 -0.032620394   -6.7648339    253.62412 
  350000  0.040508649 -0.027068527   -6.7648276    253.62412 
  351000  0.038735762 -0.0051170709   -6.7648305    253.62412 
  352000  0.039899142 -0.029185309   -6.7648343    253.62412 
  353000   0.03652659  0.014353076   -6.7648316    253.62412 
  354000  0.038792141 -0.0098317843   -6.7648335    253.62412 
  355000  0.040172268 -0.019216725   -6.7648344    253.62412 
  356000  0.039979479 -0.019563945   -6.7648357    253.62412 
  357000  0.036706496 -0.021708554   -6.7648337    253.62412 
  358000  0.040612363 -0.014390365   -6.7648364    253.62412 
  359000  0.038135474 -0.011243748   -6.7648356    253.62412 
  360000  0.038426094 -0.012572509   -6.7648355    253.62412 
  361000  0.038980344 -0.017657998   -6.7648354    253.62412 
  362000  0.041507329 -0.038479694   -6.7648379    253.62412 
  363000  0.038829888 -0.017479661   -6.7648317    253.62412 
  364000  0.038488471 -0.014883219   -6.7648321    253.62412 
  365000  0.039100164 -0.0071706927   -6.7648334    253.62412 
  366000  0.039454891 0.0022579344   -6.7648319    253.62412 
  367000  0.037459057 -0.008779171   -6.7648313    253.62412 
  368000  0.038130436 -0.010303131   -6.7648299    253.62412 
  369000   0.03935971 -0.030950844   -6.7648335    253.62412 
  370000  0.037887888  -0.02021702   -6.7648325    253.62412 
  371000  0.040432289 -0.019270043   -6.7648328    253.62412 
  372000  0.039595627 -0.0021010974   -6.7648319    253.62412 
  373000  0.038776975  -0.02416239   -6.7648258    253.62412 
  374000  0.039015846  -0.02473218   -6.7648288    253.62412 
  375000  0.039382418 -0.0093343812   -6.7648305    253.62412 
  376000  0.041342919 -0.043106427   -6.7648319    253.62412 
  377000  0.037944906 -0.0039011042   -6.7648311    253.62412 
  378000   0.03952166 -0.0097318632     -6.76483    253.62412 
  379000  0.040181065 -0.010171085   -6.7648277    253.62412 
  380000  0.039567741 -0.020403543   -6.7648241    253.62412 
  381000  0.037993247 -0.0086412109   -6.7648227    253.62412 
  382000  0.039453018 -0.020745456   -6.7648201    253.62412 
  383000  0.038925074 -0.015592075   -6.7648204    253.62412 
  384000  0.040023369 -0.033592165   -6.7648243    253.62412 
  385000  0.040724815 -0.030253659   -6.7648255    253.62412 
  386000  0.039231438 -0.012186388   -6.7648284    253.62412 
  387000  0.038803071 -0.013069261   -6.7648264    253.62412 
  388000  0.039176374 -0.015870295   -6.7648264    253.62412 
  389000  0.039506673 -0.014930543   -6.7648287    253.62412 
  390000   0.03995318 -0.0054591668   -6.7648305    253.62412 
  391000  0.037658094 -0.0012098411   -6.7648288    253.62412 
  392000  0.035853852 0.00065551705   -6.7648233    253.62412 
  393000  0.038918384 -0.016326206   -6.7648252    253.62412 
  394000  0.038813409 -0.042946741   -6.7648259    253.62412 
  395000   0.03906434 -0.010567253   -6.7648259    253.62412 
  396000  0.039179964 -0.014607486   -6.7648289    253.62412 
  397000  0.038577289 0.0032279817   -6.7648306    253.62412 
  398000   0.04040903 -0.036262582   -6.7648299    253.62412 
  399000  0.037345149 -0.012515442   -6.7648289    253.62412 
  400000  0.038654298 -0.014955971   -6.7648312    253.62412 
  401000  0.038155483 -0.011360004   -6.7648328    253.62412 
  402000  0.040848973 -0.033396366   -6.7648333    253.62412 
  403000  0.041966612 -0.047054279   -6.7648339    253.62412 
  404000  0.040297109 -0.026640378   -6.7648333    253.62412 
  405000   0.03844702 0.00041944216   -6.7648329    253.62412 
  406000  0.040023006 -0.018464443   -6.7648302    253.62412 
  407000  0.039937439 -0.018214225   -6.7648322    253.62412 
  408000  0.040466412 -0.025037027   -6.7648318    253.62412 
  409000  0.036969304 -0.023781753   -6.7648311    253.62412 
  410000  0.040640853 -0.015895751   -6.7648322    253.62412 
  411000  0.039049646 -0.021550899   -6.7648301    253.62412 
  412000  0.037103738 -0.0046309495   -6.7648284    253.62412 
  413000  0.038115188 -0.015454518   -6.7648285    253.62412 
  414000  0.040849584 -0.030569103   -6.7648296    253.62412 
  415000   0.03869987 -0.019885975   -6.7648304    253.62412 
  416000  0.038617265 -0.008810808   -6.7648306    253.62412 
  417000   0.04030911 -0.039073448   -6.7648303    253.62412 
  418000  0.038886908 -0.021543606   -6.7648308    253.62412 
  419000  0.037549881 -0.022810131   -6.7648326    253.62412 
  420000   0.04141128 -0.044444667   -6.7648356    253.62412 
  421000    0.0399254 -0.027469654   -6.7648326    253.62412 
  422000  0.038840737 -0.022248549   -6.7648331    253.62412 
  423000  0.039689616 -0.0095507777   -6.7648317    253.62412 
  424000  0.038318877 -0.010979549    -6.764833    253.62412 
  425000  0.040521767 -0.031660201   -6.7648308    253.62412 
  426000   0.03954962 -0.0067589987   -6.7648298    253.62412 
  427000  0.038721385 -0.018019662   -6.7648305    253.62412 
  428000  0.041887199 -0.038112032    -6.764834    253.62412 
  429000  0.037964058 -0.013040352   -6.7648309    253.62412 
  430000  0.040696882 -0.036522259   -6.7648329    253.62412 
  431000  0.038084339 -0.027412129   -6.7648357    253.62412 
  432000  0.038755401 -0.023646436   -6.7648371    253.62412 
  433000  0.039723184 -0.019152678   -6.7648332    253.62412 
  434000  0.037807576 0.0037253365   -6.7648355    253.62412 
  435000  0.036110853  0.025000777   -6.7648353    253.62412 
  436000  0.036051847 0.0084698841   -6.7648355    253.62412 
  437000  0.036868256 -0.0062465645   -6.7648339    253.62412 
  438000   0.04085905 -0.018036681   -6.7648373    253.62412 
  439000  0.041492232 -0.010630608   -6.7648398    253.62412 
  440000  0.039458692 -0.010989646   -6.7648405    253.62412 
  441000   0.03789342 0.0025726672   -6.7648376    253.62412 
  442000  0.039607845 -0.030028769   -6.7648373    253.62412 
  443000  0.038268477 -0.020403956   -6.7648339    253.62412 
  444000  0.041958116 -0.054489609   -6.7648353    253.62412 
  445000  0.037057355 -0.0050176929   -6.7648348    253.62412 
  446000  0.038225152 -0.018258991   -6.7648365    253.62412 
  447000  0.039123616 -0.0088900723   -6.7648389    253.62412 
  448000  0.038785951 -0.033557242   -6.7648364    253.62412 
  449000   0.03969575 -0.036218253   -6.7648399    253.62412 
  450000  0.037729007 -0.0057347046   -6.7648376    253.62412 
  451000  0.039116191 -0.0015879127   -6.7648386    253.62412 
  452000  0.038432502 -0.0097691205   -6.7648373    253.62412 
  453000  0.038977355  -0.01792484   -6.7648344    253.62412 
  454000   0.03973066 -0.029902914    -6.764837    253.62412 
  455000   0.04168274 -0.053226144   -6.7648402    253.62412 
  456000  0.037521707 -0.0095963416   -6.7648421    253.62412 
  457000  0.040243477 -0.041445251   -6.7648409    253.62412 
  458000  0.038728156 -0.0066328173   -6.7648429    253.62412 
  459000   0.03915392 -0.0024106028   -6.7648417    253.62412 
  460000  0.038575417 -0.016771966   -6.7648424    253.62412 
  461000  0.038611775 -0.0053900357   -6.7648387    253.62412 
  462000  0.038848208 -0.029287284   -6.7648371    253.62412 
  463000  0.036705042 -0.0083832983   -6.7648351    253.62412 
  464000  0.036607181 -0.0039396186    -6.764833    253.62412 
  465000   0.04010625  -0.02518347   -6.7648371    253.62412 
  466000  0.039484003 -0.0056009278   -6.7648352    253.62412 
  467000  0.040129338 -0.023174238   -6.7648364    253.62412 
  468000  0.037959421  -0.01968339   -6.7648353    253.62412 
  469000  0.039469507 -0.010464603   -6.7648307    253.62412 
  470000  0.039580666 -0.018855807   -6.7648313    253.62412 
  471000  0.037032954 0.0017603804   -6.7648241    253.62412 
  472000  0.038846889  -0.01433825    -6.764825    253.62412 
  473000  0.036940409 -0.014870413   -6.7648293    253.62412 
  474000  0.038257756 -0.006464158   -6.7648291    253.62412 
  475000  0.038265475 -0.0058120498   -6.7648304    253.62412 
  476000  0.039728134 -0.024605923   -6.7648328    253.62412 
  477000  0.040928284 -0.017897198   -6.7648363    253.62412 
  478000  0.039302428 -0.033063195   -6.7648351    253.62412 
  479000  0.039314271 -0.020285161   -6.7648393    253.62412 
  480000  0.036430334 -0.012722724   -6.7648377    253.62412 
  481000  0.039149552 -0.021128407   -6.7648352    253.62412 
  482000  0.038212697 -0.010334405   -6.7648351    253.62412 
  483000  0.040165671 -0.014639585   -6.7648365    253.62412 
  484000  0.039620954 -0.014869216   -6.7648357    253.62412 
  485000  0.038269893 -0.019406516     -6.76484    253.62412 
  486000   0.04090221 -0.029721047   -6.7648384    253.62412 
  487000  0.038347618 -0.027006977    -6.764836    253.62412 
  488000  0.039790921 -0.025418278   -6.7648404    253.62412 
  489000  0.038886481 -0.003419696   -6.7648445    253.62412 
  490000  0.037947123 0.0024855708   -6.7648425    253.62412 
  491000  0.037720422 -0.018656406    -6.764843    253.62412 
  492000  0.038213882  -0.01704765    -6.764846    253.62412 
  493000  0.038974248 -0.017330743   -6.7648414    253.62412 
  494000   0.03900589 -0.024427018    -6.764841    253.62412 
  495000  0.039640847 -0.019649548   -6.7648403    253.62412 
  496000  0.039365775 0.0092268638   -6.7648422    253.62412 
  497000  0.036742751 -0.0034549345   -6.7648397    253.62412 
  498000  0.037933592  -0.03535666   -6.7648422    253.62412 
  499000   0.03703455 -0.007167322   -6.7648415    253.62412 
  500000  0.038383412 -0.011940935   -6.7648417    253.62412 
  501000  0.040214748 -0.020178724   -6.7648441    253.62412 
  502000  0.038106626  0.014495966   -6.7648432    253.62412 
  503000  0.037631664 -0.018281767   -6.7648435    253.62412 
  504000  0.038307769 -0.015251136   -6.7648417    253.62412 
  505000  0.041210832 -0.031285687   -6.7648417    253.62412 
  506000  0.038268529 -0.022879383   -6.7648432    253.62412 
  507000  0.038814907 -0.019115429   -6.7648453    253.62412 
  508000  0.036570544 -0.013720428   -6.7648442    253.62412 
  509000  0.038583332 -0.036982063   -6.7648439    253.62412 
  510000  0.038783322 -0.019412903    -6.764846    253.62412 
  511000  0.039775992 -0.029443501   -6.7648437    253.62412 
  512000  0.038355643 -0.0050374875   -6.7648469    253.62412 
  513000  0.038916637 -0.019376627   -6.7648458    253.62412 
  514000  0.036283858 -0.0070974193   -6.7648434    253.62412 
  515000    0.0390093  0.004095046   -6.7648443    253.62412 
  516000  0.039246268 0.00042170294   -6.7648441    253.62412 
  517000  0.038415999 -0.038267893   -6.7648444    253.62412 
  518000  0.039420281 -0.020117986   -6.7648456    253.62412 
  519000  0.039969086 -0.023199471   -6.7648431    253.62412 
  520000  0.038383314 -0.013973858   -6.7648427    253.62412 
  521000  0.039441812 -0.015942311    -6.764846    253.62412 
  522000  0.036890022 0.0074693377   -6.7648446    253.62412 
  523000   0.03902323 0.0066817226   -6.7648463    253.62412 
  524000  0.040630776 -0.0045917132   -6.7648501    253.62412 
  525000  0.040118706 -0.051438638   -6.7648519    253.62412 
  526000  0.038462887 -0.017660422   -6.7648511    253.62412 
  527000  0.038209549 0.0045375412    -6.764847    253.62412 
  528000  0.039810531 -0.011843767   -6.7648459    253.62412 
  529000   0.03864993 -0.0011390925   -6.7648422    253.62412 
  530000  0.040240058 -0.032898167   -6.7648429    253.62412 
  531000   0.03829625 -0.016292915   -6.7648419    253.62412 
  532000  0.040921812 -0.029194002   -6.7648447    253.62412 
  533000  0.039851356 -0.029709848   -6.7648432    253.62412 
  534000  0.040910183 -0.021546368   -6.7648444    253.62412 
  535000  0.040201752 -0.020547369   -6.7648425    253.62412 
  536000  0.037509317 0.0083308004   -6.7648432    253.62412 
  537000  0.039073546 -0.031098625   -6.7648436    253.62412 
  538000  0.039557731 -0.00022555755   -6.7648439    253.62412 
  539000  0.038758261 -0.0080056954   -6.7648414    253.62412 
  540000  0.036839887 -0.0097456364   -6.7648429    253.62412 
  541000  0.040057728 -0.037354676   -6.7648445    253.62412 
  542000  0.039670651 -0.025337162   -6.7648461    253.62412 
  543000  0.039449461 -0.014716362   -6.7648437    253.62412 
  544000  0.040979367  -0.02539897   -6.7648471    253.62412 
  545000  0.036450092 -0.0038081632   -6.7648438    253.62412 
  546000   0.03897274  -0.01854479   -6.7648484    253.62412 
  547000  0.040072571 -0.017037649   -6.7648448    253.62412 
  548000  0.039140664 -0.025747693   -6.7648489    253.62412 
  549000  0.040031836 -0.023822504   -6.7648503    253.62412 
  550000  0.041088023 -0.023359728   -6.7648552    253.62412 
  551000   0.03888151 -0.022970209   -6.7648526    253.62412 
  552000  0.037788644 0.0012077197   -6.7648516    253.62412 
  553000  0.038276972 -0.0069367932   -6.7648522    253.62412 
  554000  0.037917588 -0.014737344   -6.7648526    253.62412 
  555000  0.039060993  -0.01427595   -6.7648575    253.62412 
  556000  0.037379062  0.012645483   -6.7648603    253.62412 
  557000  0.039935771 -0.041652396    -6.764857    253.62412 
  558000  0.036958475 -0.021664624   -6.7648569    253.62412 
  559000  0.039265787  -0.02393555   -6.7648611    253.62412 
  560000  0.037738937 -0.010210656   -6.7648599    253.62412 
  561000  0.039898763 -0.020741496   -6.7648624    253.62412 
  562000  0.038868802 -0.013369456   -6.7648629    253.62412 
  563000  0.039599704 -0.016376878   -6.7648598    253.62412 
  564000  0.038810466 -0.015386189   -6.7648608    253.62412 
  565000  0.037745072 -0.014163602   -6.7648631    253.62412 
  566000  0.042263114 -0.047105116   -6.7648662    253.62412 
  567000  0.038870928 -0.027772849   -6.7648655    253.62412 
  568000  0.036736677 0.0049588049   -6.7648658    253.62412 
  569000  0.037986882 -0.013545324   -6.7648659    253.62412 
  570000  0.036259223 -0.0038798302   -6.7648664    253.62412 
  571000  0.037871283 -0.015790242   -6.7648658    253.62412 
  572000    0.0398906  -0.04525145   -6.7648669    253.62412 
  573000  0.042473419  -0.04013604   -6.7648688    253.62412 
  574000  0.038947308 -0.0041308992   -6.7648688    253.62412 
  575000  0.040761616 -0.0072678867   -6.7648674    253.62412 
  576000  0.037251022  0.003629743   -6.7648662    253.62412 
  577000  0.039014567 -0.0051352824   -6.7648654    253.62412 
  578000  0.037054127 -0.024159713   -6.7648637    253.62412 
  579000  0.039903423 -0.026148487   -6.7648634    253.62412 
  580000  0.038458546 -0.012164438   -6.7648616    253.62412 
  581000  0.038857362 -0.036412402    -6.764864    253.62412 
  582000  0.037097378 -0.0021512558   -6.7648647    253.62412 
  583000  0.037609925 -0.0047444442    -6.764864    253.62412 
  584000  0.038170555 -0.029385046   -6.7648634    253.62412 
  585000  0.041071819  -0.04098755   -6.7648658    253.62412 
  586000  0.036688168 0.0012534905   -6.7648646    253.62412 
  587000  0.039752456 -0.019988902   -6.7648677    253.62412 
  588000  0.038004669 -0.020164485   -6.7648665    253.62412 
  589000   0.03843729 -0.024190971   -6.7648673    253.62412 
  590000  0.039296661 -0.026981424   -6.7648705    253.62412 
  591000  0.038937097  -0.01406513   -6.7648741    253.62412 
  592000  0.037769615 -0.016649658   -6.7648699    253.62412 
  593000  0.037754669 -0.0062673424   -6.7648701    253.62412 
  594000   0.03653482  0.010028426   -6.7648687    253.62412 
  595000  0.038967449 -0.0035677684   -6.7648698    253.62412 
  596000  0.040174751 -0.032536043   -6.7648678    253.62412 
  597000  0.036180348  0.011366613   -6.7648693    253.62412 
  598000   0.04004231 -0.024362499   -6.7648724    253.62412 
  599000  0.037734759 -0.026251752   -6.7648668    253.62412 
  600000  0.037406758 -0.0036712368   -6.7648654    253.62412 
Loop time of 137.653 on 1 procs for 500000 steps with 256 atoms

Pair  time (%) = 126.067 (91.5832)
Neigh time (%) = 0.704695 (0.511935)
Comm  time (%) = 6.10275 (4.43342)
Outpt time (%) = 0.0196626 (0.0142842)
Other time (%) = 4.75887 (3.45714)

Nlocal:    256 ave 256 max 256 min
Histogram: 1 0 0 0 0 0 0 0 0 0
Nghost:    1448 ave 1448 max 1448 min
Histogram: 1 0 0 0 0 0 0 0 0 0
Neighs:    11528 ave 11528 max 11528 min
Histogram: 1 0 0 0 0 0 0 0 0 0

Total # of neighbors = 11528
Ave neighs/atom = 45.0312
Neighbor list builds = 1119
Dangerous builds = 0
#	run             10000
	unfix 		1


