ITEM: TIMESTEP
0
ITEM: NUMBER OF ATOMS
256
ITEM: BOX BOUNDS
0 6.3299
0 6.3299
0 6.3299
ITEM: ATOMS x y z 
0.78218 0.75525 4.747 
2.7221 2.1139 1.1192 
1.5967 0.21116 1.4219 
5.1424 2.0872 2.016 
1.3887 3.9857 5.2995 
2.9187 5.3208 4.8061 
1.8929 4.1399 2.4912 
3.9802 3.433 4.8613 
5.8039 4.8789 3.2476 
0.15141 1.2628 1.708 
0.15066 0.10368 4.0652 
1.7806 0.41089 5.8842 
5.3433 6.1532 5.7869 
2.079 3.8845 3.6189 
2.5819 3.9034 1.638 
0.22406 2.2847 3.5269 
3.6326 3.6717 3.8224 
5.7623 2.0463 4.32 
3.497 5.6307 2.738 
1.7669 2.2481 5.4727 
1.5013 3.736 1.4741 
3.1179 4.5849 4.0279 
5.5385 3.0832 2.0998 
1.1385 2.95 0.69095 
4.2156 4.3683 4.3387 
4.3183 3.6303 1.1471 
5.0654 2.8319 1.1562 
3.2 3.3149 0.92518 
0.45146 6.2309 2.2616 
3.9438 2.609 1.0951 
3.4365 6.249 4.6983 
1.8437 4.8328 3.7638 
0.14572 4.4135 5.3 
6.0224 3.7687 0.34547 
1.9858 5.6688 4.3892 
1.74 3.232 3.1776 
3.1852 2.7008 1.8639 
2.9707 1.9575 3.8016 
6.0385 1.0145 0.75945 
1.4492 1.7076 4.6286 
4.3696 2.3942 4.7053 
4.8924 5.0918 3.8488 
2.5073 5.9242 1.3585 
4.6645 0.84676 0.71432 
3.0821 0.63232 1.151 
1.7888 2.8969 2.0901 
1.0457 1.8767 1.9456 
1.9152 5.265 5.3814 
2.1754 3.0438 1.031 
3.3839 6.2426 1.8632 
4.0914 1.6183 3.7601 
4.2107 1.6179 0.74261 
1.3017 5.8113 6.0561 
2.242 0.33393 0.56589 
2.1617 2.2 0.16477 
0.074248 0.10373 0.32248 
5.7637 1.2708 2.504 
5.6035 3.9065 2.8115 
0.43308 1.7922 4.4879 
2.6695 3.3352 2.5531 
0.3041 4.4034 2.7573 
4.4181 6.0266 5.2026 
2.5553 0.20858 4.0663 
4.6562 5.4815 0.68301 
1.3088 2.2049 3.7137 
3.3524 5.9709 5.7423 
3.7033 0.71644 0.26155 
2.5193 5.8781 2.4392 
3.891 2.4817 5.6544 
3.8653 4.7093 2.2099 
5.5287 5.8465 4.6601 
4.989 3.5655 0.32072 
0.60678 1.1048 0.19138 
5.6138 4.6205 2.0043 
3.2055 6.1191 0.49242 
5.3309 4.301 5.9305 
4.6769 1.1868 2.3905 
5.3159 1.1236 1.5282 
0.45343 1.5115 2.7618 
3.8527 2.6286 3.774 
1.9007 0.7868 4.8887 
0.91771 4.5389 1.8387 
4.9067 3.0954 2.9876 
2.7799 5.1446 0.63958 
0.67343 3.9175 6.2181 
1.237 1.3117 5.6181 
4.1093 0.7268 4.5091 
1.6228 3.8279 0.35446 
5.7891 3.3787 5.6668 
2.1629 1.1804 1.255 
3.2799 0.92941 3.8249 
2.8803 3.0025 3.5265 
5.3091 2.9159 4.779 
5.028 3.9726 4.91 
0.19884 1.3321 5.4671 
3.7392 5.2491 0.13499 
2.1636 3.1928 5.191 
0.24954 5.715 5.8329 
1.9006 4.8413 0.051238 
5.307 4.0997 3.8362 
0.49419 2.0788 0.99122 
2.3532 5.8614 6.2154 
4.4313 4.0227 3.1995 
0.99745 5.7077 3.9311 
2.6357 1.3323 2.9186 
1.1436 4.1394 3.395 
5.5844 5.8821 3.5851 
1.114 5.1415 2.9154 
2.7789 3.6086 4.4399 
3.6933 6.2254 3.6547 
3.9099 5.3827 4.3268 
4.6348 3.3332 4.041 
2.372 4.0883 5.7568 
5.1094 0.49046 4.9482 
2.5918 4.101 0.55754 
1.2044 6.0906 5.0061 
2.1612 2.6453 4.214 
4.3803 1.4663 5.3062 
3.3597 1.4852 5.7524 
3.3126 4.1433 2.9075 
2.787 1.3351 0.35651 
0.70897 0.36624 5.7766 
5.276 5.519 1.5204 
5.5853 5.7248 2.5179 
3.919 4.9246 3.3716 
0.144 5.2333 2.1444 
1.1645 0.24293 0.45018 
2.5025 1.7889 4.7608 
3.6048 3.6953 1.939 
5.4093 0.54142 3.8744 
1.7158 3.6728 4.2171 
4.7177 3.9099 2.1637 
0.71398 2.2824 5.4331 
5.1721 0.34571 2.81 
6.0398 1.0044 4.5726 
4.5898 4.6749 1.4152 
4.4085 2.9024 2.0182 
2.484 3.1838 4.8818 
3.2138 2.6736 4.6595 
4.3648 4.4212 0.36404 
6.2366 5.7959 1.258 
4.6924 3.2679 5.6665 
3.7961 3.1682 2.8544 
3.703 1.2286 2.8164 
0.30207 3.7903 1.9185 
1.9561 0.51611 3.0772 
4.6449 6.1548 4.158 
5.8911 0.30986 1.9039 
4.8461 0.19934 1.7825 
1.0247 4.6503 0.68257 
0.41636 4.8365 3.8456 
0.49702 0.32551 1.2883 
2.2277 4.4839 4.7262 
1.2176 2.845 4.6847 
4.395 2.1599 2.8704 
6.0013 3.7391 4.6263 
1.8973 5.8166 3.3276 
5.4313 3.8288 1.3048 
4.2932 6.185 6.2848 
2.4236 3.9839 3.4671 
3.2143 3.3671 5.5795 
0.61026 5.5676 0.50416 
0.15495 2.8204 4.4806 
5.6111 2.6978 0.18451 
3.6406 1.5732 0.94713 
5.1013 1.4226 3.3264 
3.3148 2.3757 0.23814 
2.9654 0.83142 4.9364 
1.0841 2.0784 0.074972 
6.1331 1.3128 3.5768 
4.5676 5.8249 3.1261 
4.6752 1.8401 1.0598 
2.5589 4.9176 2.9123 
4.7595 5.2205 5.9884 
5.383 4.6515 0.63826 
0.70862 3.9434 4.4471 
4.1045 1.5635 1.0329 
1.8136 5.1504 2.1032 
2.8563 5.0295 5.8318 
0.31582 2.9034 2.8998 
1.6266 2.1048 1.0914 
4.3522 5.6388 2.0512 
0.48301 3.3511 5.3345 
3.3919 4.2414 6.2316 
5.8686 0.75494 6.0572 
1.6998 1.22 0.27495 
4.3982 0.65101 3.4825 
3.0458 0.32845 2.9353 
4.0028 0.86324 1.6525 
0.75281 2.908 1.6965 
6.2869 1.8961 0.74302 
1.6931 5.6505 0.73202 
2.8417 0.51111 5.9991 
1.9574 4.6848 1.1814 
0.96687 4.8585 5.8003 
4.8013 0.75279 5.9821 
6.0132 2.3587 5.3846 
5.7267 5.5826 0.27304 
1.4897 6.1217 2.3878 
4.9355 1.4041 4.3891 
1.0896 0.79457 2.1968 
1.5284 1.5011 2.8941 
4.5643 2.5674 0.24172 
5.2734 1.6112 0.16017 
0.90275 1.1721 3.7315 
0.96807 3.5992 2.4738 
3.8466 0.5556 5.5295 
2.1446 1.8893 2.0685 
3.5627 1.6709 4.6797 
3.0761 1.4037 1.9152 
0.26622 5.5154 4.7581 
4.9078 2.3473 3.7907 
6.1564 2.9888 1.1257 
4.2682 4.2237 5.6214 
3.507 4.3606 1.0662 
2.2104 2.3065 3.0686 
1.0938 1.168 1.1459 
2.3014 1.3734 5.7203 
5.7594 1.9997 1.0844 
1.4948 0.30313 4.0557 
2.863 4.9611 1.8308 
3.2845 2.2193 2.8045 
3.8512 5.1426 5.371 
0.97335 2.5411 2.7567 
3.2875 4.3052 5.0746 
3.9999 1.9158 1.926 
2.0893 1.2687 3.869 
0.97719 5.6009 1.5315 
2.8015 2.3821 5.6194 
5.8221 4.809 4.4407 
1.1928 4.7055 1.1599 
4.8489 4.881 2.7038 
2.4344 6.2238 5.1828 
3.9062 3.3612 0.11272 
6.2 0.16021 5.1745 
0.90661 0.22268 3.1848 
5.6413 2.2803 2.9562 
5.4123 0.10043 0.85242 
4.0839 0.25328 2.5611 
5.7123 3.05 3.7423 
4.9821 2.2805 5.6511 
6.2877 2.2668 2.0648 
2.3772 4.7533 1.2485 
4.8305 5.0411 4.9237 
0.5467 3.7709 0.98741 
1.1795 4.902 4.672 
6.1963 0.39339 3.0263 
3.6766 5.3852 1.2418 
5.4639 1.4223 5.3508 
2.878 5.5659 3.712 
0.043215 3.1202 2.8194 
1.3613 3.0872 5.9536 
5.7427 5.1818 5.4899 
0.80649 3.1642 3.6839 
0.21443 5.6804 3.1644 
2.3998 0.55461 2.0804 
ITEM: TIMESTEP
356
ITEM: NUMBER OF ATOMS
256
ITEM: BOX BOUNDS
0 6.3299
0 6.3299
0 6.3299
ITEM: ATOMS x y z 
0.815747 0.72039 4.81567 
2.73931 2.23488 1.02315 
1.63447 0.105931 1.4828 
5.09461 2.08595 1.9199 
0.678648 3.91016 6.25088 
2.96538 5.37208 4.89309 
1.94497 4.22912 2.24414 
4.06438 3.47048 4.7949 
6.03503 4.84387 3.277 
0.038367 1.24079 1.41804 
0.263074 0.115512 4.00382 
1.76863 0.408894 5.95129 
5.40065 6.09701 5.7862 
1.71879 3.76567 4.25391 
2.60463 3.78788 1.52516 
0.216673 2.51686 3.58468 
3.61883 3.76326 3.80861 
5.59242 2.23204 4.51227 
3.41121 5.49418 2.70386 
1.80091 2.2559 5.38932 
1.49772 3.65766 1.42042 
3.11794 4.75429 3.94381 
5.55622 3.07685 2.04613 
1.11552 2.95597 0.699305 
4.40295 4.37136 4.29333 
4.29417 3.61429 1.10269 
5.03839 2.81419 1.10332 
3.19737 3.29269 0.822768 
0.240969 6.13125 2.39998 
3.95579 2.61073 1.01402 
3.47935 6.28896 4.70533 
1.8741 4.85927 3.83389 
0.0945618 4.30571 5.37169 
6.02454 3.7732 0.332751 
2.03859 5.71291 4.43363 
1.8949 3.14869 3.15796 
3.21291 2.79753 1.83194 
3.07082 1.84232 3.81189 
5.84427 1.04889 0.526754 
1.33254 1.65597 4.64765 
4.42166 2.46687 4.60887 
5.1177 5.11805 3.87113 
2.5922 5.94739 1.43296 
4.77994 0.820907 0.495018 
3.12047 0.694112 1.21342 
2.01636 2.89565 1.98071 
0.888686 1.81086 1.95533 
1.94314 5.2866 5.42471 
2.15093 3.06285 0.859846 
3.4844 6.24962 1.91424 
4.17771 1.59247 4.03183 
4.22239 1.56778 6.26776 
1.27219 5.78231 6.15509 
2.25124 0.360496 0.658881 
2.15382 2.22258 0.102535 
0.0686688 0.166989 0.42058 
5.75719 1.32581 2.38214 
5.66227 3.91843 2.78477 
0.318315 1.99745 4.52273 
2.73908 3.49082 2.55627 
0.466925 4.22435 2.80061 
4.41644 6.12013 5.27556 
2.52779 0.293865 4.13915 
4.17873 6.21382 1.0383 
1.24552 2.23687 3.77484 
3.40404 6.04236 5.8195 
3.72532 0.702098 0.330893 
2.43039 5.92976 2.55076 
3.92398 2.50814 5.55767 
4.05742 4.68946 2.29521 
5.7743 5.75811 4.43704 
4.99553 3.54362 0.311087 
0.585836 1.11685 0.303802 
5.49982 4.72281 1.82746 
3.20685 6.13727 0.566717 
5.36583 4.32834 5.9869 
4.61025 1.16086 2.30539 
5.26789 1.12054 1.43658 
0.484218 0.848783 2.27959 
3.88662 2.54644 3.64206 
1.88839 0.771485 4.92109 
0.931196 4.46567 1.8028 
4.89094 3.10691 2.8848 
2.77453 5.15748 0.717075 
0.316936 2.89815 0.0236206 
1.23869 1.31045 5.67882 
4.29546 0.670794 4.64754 
1.6562 3.84431 0.31602 
5.79754 3.43036 5.63263 
2.15324 1.20146 1.34375 
3.43361 0.81046 3.98424 
2.91428 2.97393 3.51498 
5.23861 3.20797 4.71796 
5.38091 4.24044 4.91037 
0.237206 1.37892 5.4287 
3.79935 5.28622 0.272673 
2.52972 3.19576 6.20981 
0.194567 5.76727 5.95791 
1.91088 4.858 0.0627273 
5.33155 4.08882 3.81399 
0.484333 2.09724 0.96755 
2.32734 5.88922 6.3089 
4.43525 4.05892 3.13978 
0.997206 5.6741 4.19414 
2.70417 1.28393 2.89547 
1.47221 4.12408 3.21887 
5.863 5.91092 3.29711 
1.23999 5.02073 2.70163 
2.79907 3.62809 4.4569 
3.78944 6.07343 3.64915 
3.92969 5.33 4.42873 
4.5896 3.30736 3.88653 
2.42985 4.15081 5.69933 
5.32755 0.373097 4.90612 
2.66764 4.12815 0.411414 
1.2923 6.13116 5.12828 
2.16068 2.68759 4.22891 
4.46641 1.55305 5.2124 
3.28792 1.5296 5.85793 
3.32337 4.32805 2.92872 
2.71296 1.34172 0.418301 
0.696573 0.385729 5.85708 
5.03155 5.5539 1.26099 
5.49147 5.7469 2.29214 
4.08783 5.02694 3.40522 
0.095024 5.07133 2.26728 
1.16744 0.231446 0.527247 
2.44335 1.74872 4.70563 
3.61621 3.80489 1.91852 
5.4956 0.395876 3.85749 
1.39523 3.96174 5.39594 
4.77701 3.90152 2.11589 
0.776944 2.28532 5.45626 
5.26373 0.397465 2.78398 
6.14885 0.977962 4.51789 
4.51367 4.63234 1.33251 
4.35143 2.91829 1.96391 
2.14289 3.23291 5.17753 
3.30029 2.70982 4.53699 
4.39343 4.39194 0.264818 
6.11094 5.73367 1.40787 
4.69829 3.34613 5.65408 
3.77679 3.24178 2.83143 
3.81169 1.31695 3.09885 
6.31193 3.8767 1.90118 
2.02222 0.460007 3.10955 
4.71699 6.0629 4.24444 
5.88841 0.380774 1.87943 
4.83751 0.203251 1.81917 
0.0126634 4.77204 0.0537349 
0.749835 4.69861 3.75914 
0.526301 0.191238 1.40611 
2.33381 4.53918 4.72586 
1.16427 2.88709 4.64557 
4.40991 2.15517 2.77268 
0.0285599 3.84576 3.68217 
1.68868 5.79883 3.37607 
5.43138 3.80559 1.2624 
4.39478 6.2258 0.000644651 
2.49166 3.99287 3.50483 
3.24418 3.40843 5.45224 
0.547846 5.59677 0.630544 
6.32295 3.06821 4.50482 
5.61198 2.7134 0.113901 
3.60624 1.63324 0.852044 
5.06501 1.36419 3.22338 
3.32347 2.42993 0.132652 
2.95362 0.841518 5.01672 
1.08904 2.07529 0.101402 
5.96568 1.6312 3.69634 
4.77342 5.86113 3.17865 
4.66143 1.81293 0.921251 
2.40246 4.92791 2.9116 
4.81716 5.2468 6.0807 
5.37865 4.6722 0.66811 
0.68097 3.92363 4.52706 
4.18004 0.907943 1.35618 
1.89425 5.27907 1.90125 
2.88728 5.10058 5.93711 
0.312116 1.73855 2.86589 
1.61105 2.11048 1.14511 
4.40158 5.64695 2.15851 
0.515761 3.30934 5.39333 
3.50118 4.2803 6.03631 
5.95817 0.657575 5.88511 
1.67052 1.22265 0.344091 
4.46732 0.591056 3.61201 
3.1209 0.298372 3.02491 
3.53158 0.936489 2.18617 
0.723625 2.87892 1.70683 
6.30298 1.89663 6.33038 
1.68019 5.5871 0.836349 
2.83039 0.534943 6.0816 
1.01988 4.66635 0.651647 
0.94789 4.85307 5.80836 
4.87592 0.741954 5.78771 
6.09057 2.43409 5.42765 
5.73778 5.61365 0.359805 
1.33764 6.08675 2.42202 
5.12619 1.28844 4.31372 
1.53181 0.847887 2.2126 
1.34439 1.43961 3.04894 
4.55895 2.553 0.125862 
5.25319 1.69897 6.29183 
0.665602 1.20591 3.84321 
1.15239 3.51411 2.42339 
3.83824 0.664821 5.59933 
1.92452 1.85623 2.2275 
3.50786 1.72303 4.83172 
2.9161 1.71018 1.89786 
0.403805 5.3544 4.99872 
4.93922 2.28989 3.69049 
6.14776 2.98284 1.08608 
4.42936 4.31839 5.42775 
3.52113 4.36093 0.969596 
2.19767 2.15007 3.24054 
1.09955 1.076 1.23822 
2.27425 1.37587 5.73517 
5.72326 2.00631 0.961459 
1.44758 0.310293 4.06011 
2.90908 4.76509 1.93093 
3.27858 2.23796 2.77373 
3.88923 5.19295 5.49817 
1.10969 2.49948 2.74388 
3.43911 4.37734 4.92425 
3.9707 1.90147 1.8346 
2.02934 1.24933 3.86452 
0.86968 5.51965 1.63834 
2.8345 2.41195 5.48175 
6.15119 4.71562 4.34925 
0.0390176 4.72249 1.16075 
5.04055 4.87198 2.79084 
2.46077 6.24281 5.2674 
3.90609 3.37551 0.0492033 
0.0226849 0.0448323 5.08308 
0.917859 0.385693 3.14926 
5.65782 2.30604 2.86706 
5.44371 0.138695 0.926503 
4.1523 0.234307 2.67987 
5.64227 3.07079 3.65596 
5.04851 2.3913 5.49088 
6.21353 2.22053 1.92794 
1.97568 4.56311 1.13573 
4.86924 5.20343 4.93517 
0.532123 3.78001 0.995047 
1.28094 4.79398 4.73285 
6.22648 0.713765 3.15789 
3.65501 5.33757 1.38928 
5.53471 1.45344 5.28298 
2.76298 5.71289 3.60036 
0.137728 3.11674 2.69453 
1.40602 3.03871 5.99043 
5.78684 5.16096 5.4537 
0.934537 3.29125 3.61421 
0.562682 5.62774 3.24564 
2.5384 0.539702 2.09577 
