ITEM: TIMESTEP
500000
ITEM: NUMBER OF ATOMS
256
ITEM: BOX BOUNDS
0 6.3299
0 6.3299
0 6.3299
ITEM: ATOMS f_myave[1] f_myave[2] f_myave[3] 
0.782184 0.755251 4.74696 
2.72211 2.11392 1.11918 
1.59673 0.211164 1.42189 
5.14243 2.08723 2.01604 
1.38873 3.98573 5.2995 
2.91872 5.3208 4.80612 
1.89295 4.13986 2.49115 
3.98015 3.43301 4.86125 
5.8039 4.87886 3.24756 
0.151414 1.26276 1.70803 
0.150657 0.103679 4.06517 
1.78057 0.410894 5.88416 
5.34334 6.15322 5.7869 
2.07898 3.88447 3.61892 
2.5819 3.90344 1.63804 
0.224057 2.28474 3.52686 
3.63255 3.67166 3.8224 
5.76235 2.04635 4.32003 
3.49696 5.63075 2.73802 
1.76691 2.24809 5.47274 
1.50132 3.73601 1.4741 
3.11795 4.58488 4.02788 
5.53845 3.08317 2.09982 
1.13847 2.94997 0.690949 
4.21556 4.36826 4.33868 
4.31834 3.63025 1.14707 
5.06541 2.83186 1.15625 
3.19998 3.31493 0.925183 
0.45146 6.23089 2.26158 
3.94376 2.609 1.09508 
3.43647 6.24897 4.69834 
1.84374 4.83278 3.76382 
0.145724 4.41351 5.29999 
6.02243 3.76875 0.345467 
1.9858 5.66883 4.38919 
1.74004 3.23202 3.17755 
3.18518 2.70085 1.86389 
2.97071 1.95749 3.80161 
6.03849 1.01446 0.759449 
1.44924 1.70765 4.62856 
4.36959 2.39421 4.70527 
4.89244 5.09185 3.84881 
2.50734 5.92422 1.35846 
4.66445 0.846763 0.714319 
3.0821 0.632322 1.15099 
1.78884 2.89686 2.09007 
1.04566 1.87673 1.94556 
1.91522 5.26503 5.38136 
2.17544 3.04375 1.03104 
3.38386 6.24257 1.8632 
4.09141 1.61828 3.76009 
4.2107 1.61794 0.742612 
1.30172 5.8113 6.05609 
2.24197 0.333932 0.565886 
2.16172 2.19997 0.164774 
0.0742484 0.103728 0.322478 
5.76369 1.27084 2.50398 
5.60347 3.90646 2.81152 
0.433077 1.79225 4.48795 
2.66949 3.3352 2.5531 
0.304097 4.40336 2.75733 
4.4181 6.0266 5.20259 
2.55525 0.208578 4.06632 
4.65624 5.48149 0.683009 
1.30883 2.20488 3.71367 
3.3524 5.97085 5.74225 
3.70327 0.716438 0.261549 
2.51929 5.87814 2.43915 
3.89095 2.48167 5.65444 
3.86534 4.70927 2.20989 
5.52872 5.84652 4.66014 
4.98901 3.56546 0.320722 
0.60678 1.10479 0.191379 
5.61381 4.62047 2.00434 
3.20552 6.1191 0.49242 
5.33087 4.30096 5.9305 
4.67691 1.18677 2.39052 
5.31591 1.12359 1.52817 
0.453427 1.51147 2.76179 
3.85271 2.62864 3.77398 
1.90071 0.786804 4.88872 
0.91771 4.53895 1.83869 
4.9067 3.09538 2.98755 
2.77985 5.14462 0.639582 
0.673426 3.91749 6.21812 
1.23696 1.31174 5.61805 
4.10925 0.726796 4.50907 
1.62279 3.82785 0.354462 
5.78912 3.37868 5.6668 
2.16292 1.18044 1.25495 
3.27985 0.929413 3.82492 
2.88031 3.00248 3.52654 
5.30906 2.91592 4.77897 
5.02799 3.97265 4.90998 
0.198842 1.3321 5.46711 
3.73917 5.24914 0.134992 
2.16363 3.19279 5.19103 
0.249544 5.71503 5.83291 
1.9006 4.84127 0.0512381 
5.30699 4.09968 3.83621 
0.494187 2.07884 0.99122 
2.35318 5.86137 6.2154 
4.43132 4.02268 3.19955 
0.99745 5.70775 3.93114 
2.63572 1.3323 2.91863 
1.14362 4.13938 3.39503 
5.58441 5.88212 3.58507 
1.11403 5.14147 2.91544 
2.77889 3.60865 4.4399 
3.69328 6.22537 3.65465 
3.90988 5.38271 4.32681 
4.63483 3.33323 4.04097 
2.372 4.08829 5.75675 
5.10945 0.490465 4.94824 
2.59178 4.10105 0.557543 
1.20443 6.09059 5.00606 
2.16121 2.64526 4.21403 
4.38034 1.46632 5.30624 
3.35968 1.48524 5.7524 
3.31264 4.14331 2.90748 
2.787 1.3351 0.356511 
0.708967 0.366244 5.77662 
5.27605 5.51898 1.52038 
5.58528 5.72483 2.51793 
3.91898 4.92457 3.37156 
0.143999 5.23333 2.14438 
1.16452 0.242928 0.450176 
2.50255 1.78892 4.76078 
3.60478 3.69528 1.93902 
5.40927 0.541418 3.87442 
1.71582 3.67277 4.21706 
4.71772 3.90987 2.16375 
0.713977 2.28244 5.43312 
5.17206 0.345713 2.81002 
6.03981 1.00442 4.57258 
4.58981 4.67495 1.41524 
4.40855 2.90242 2.01822 
2.48397 3.1838 4.88177 
3.21377 2.67363 4.65952 
4.36478 4.42121 0.364041 
6.23661 5.7959 1.25804 
4.69235 3.26785 5.66653 
3.79605 3.16817 2.85441 
3.70297 1.22856 2.81643 
0.302068 3.79033 1.91853 
1.95613 0.516113 3.07722 
4.64487 6.15482 4.15801 
5.89113 0.309861 1.90394 
4.84614 0.199344 1.78253 
1.02474 4.6503 0.682573 
0.416358 4.83646 3.84558 
0.497025 0.325506 1.2883 
2.22774 4.48387 4.72619 
1.21765 2.84498 4.68474 
4.39502 2.15988 2.87045 
6.00129 3.73906 4.62627 
1.89725 5.81659 3.32757 
5.43133 3.82876 1.30477 
4.2932 6.18502 6.28479 
2.42364 3.98393 3.4671 
3.21429 3.36708 5.57953 
0.610263 5.56756 0.504161 
0.154951 2.82037 4.48059 
5.61112 2.69776 0.184505 
3.64055 1.57324 0.947127 
5.10133 1.42258 3.32635 
3.31477 2.37566 0.238144 
2.96543 0.831417 4.93644 
1.08406 2.07837 0.0749723 
6.13311 1.31276 3.57679 
4.56759 5.82492 3.12611 
4.67515 1.84008 1.05976 
2.55888 4.91761 2.9123 
4.75955 5.22052 5.98836 
5.38301 4.65153 0.638255 
0.708623 3.9434 4.4471 
4.10451 1.5635 1.03294 
1.81362 5.15042 2.10321 
2.8563 5.02952 5.83175 
0.315824 2.90336 2.89976 
1.62664 2.10478 1.09141 
4.35222 5.63883 2.05117 
0.483007 3.35113 5.33448 
3.3919 4.24139 6.23158 
5.86865 0.754942 6.05721 
1.69978 1.22 0.274948 
4.39818 0.65101 3.48253 
3.0458 0.328447 2.93526 
4.00282 0.863236 1.65249 
0.752813 2.90796 1.69646 
6.28688 1.89605 0.743024 
1.6931 5.65046 0.732024 
2.8417 0.511112 5.99914 
1.95745 4.68483 1.18142 
0.966868 4.85845 5.80026 
4.8013 0.752795 5.98212 
6.01323 2.3587 5.38462 
5.72674 5.58262 0.273035 
1.48975 6.12167 2.38783 
4.93545 1.40411 4.38911 
1.08964 0.794572 2.19684 
1.52842 1.50114 2.89414 
4.5643 2.56736 0.241724 
5.27343 1.61123 0.160166 
0.902755 1.1721 3.73149 
0.968073 3.59918 2.47379 
3.84663 0.555602 5.52947 
2.1446 1.88931 2.06846 
3.56272 1.67093 4.67966 
3.07611 1.40369 1.91523 
0.26622 5.51543 4.75811 
4.90781 2.34727 3.79066 
6.15641 2.98876 1.12569 
4.26821 4.2237 5.62144 
3.50702 4.36056 1.06624 
2.21041 2.30647 3.06864 
1.09378 1.16799 1.14594 
2.30137 1.37344 5.72029 
5.75938 1.99968 1.08437 
1.49476 0.303129 4.05571 
2.86301 4.96105 1.83084 
3.28453 2.21927 2.80451 
3.85124 5.14259 5.37102 
0.973351 2.54107 2.75674 
3.28752 4.30524 5.07464 
3.99994 1.91575 1.92601 
2.08928 1.2687 3.86898 
0.977191 5.6009 1.53151 
2.80147 2.38209 5.61942 
5.82207 4.80904 4.4407 
1.19285 4.70552 1.15993 
4.84892 4.88101 2.70376 
2.43444 6.22378 5.1828 
3.90622 3.36123 0.112724 
6.19998 0.160208 5.17447 
0.906613 0.222679 3.18476 
5.64131 2.28032 2.95621 
5.41232 0.100433 0.852415 
4.08392 0.253277 2.56107 
5.71231 3.05001 3.74234 
4.98209 2.28055 5.65109 
6.28766 2.26683 2.06482 
2.37716 4.75326 1.24849 
4.83048 5.04105 4.92365 
0.546698 3.77086 0.987412 
1.17953 4.90201 4.672 
6.19631 0.393388 3.02626 
3.67655 5.38515 1.24185 
5.46387 1.42229 5.35082 
2.87798 5.56586 3.71202 
0.0432153 3.1202 2.81935 
1.36128 3.08721 5.95363 
5.7427 5.18178 5.48989 
0.806491 3.1642 3.68395 
0.214429 5.68037 3.16439 
2.39978 0.554605 2.08038 
