********************************************************************************
*                       GENERAL UTILITY LATTICE PROGRAM                        *
*                                 Julian Gale                                  *
*                      Nanochemistry Research Institute                        *
*                           Department of Chemistry                            *
*                    Curtin University, Western Australia                      *
********************************************************************************
* Version = 4.1.0 * Last modified =  21st June 2013                            *
********************************************************************************
*  optimise     - perform optimisation run                                     *
*  phonon       - calculate phonons for final geometry                         *
*  thermal      - calculate thermal conductivity for final geometry            *
*  molecule     - molecule option activated, Coulomb subtract within molecule  *
*  compare      - compare initial and final structures                         *
********************************************************************************

  Job Started  at 12:03.30 13th July       2013                               

  Number of CPUs =     1


  Total number of configurations input =   1

********************************************************************************
*  Input for Configuration =   1                                               *
********************************************************************************

  Formula = C12O2H14                                                    

  Number of irreducible atoms/shells =      28


  Total number atoms/shells =      28

  Dimensionality = 3               :  Bulk   



  Cartesian lattice vectors (Angstroms) :

      100.000000    0.000000    0.000000
        0.000000  100.000000    0.000000
        0.000000    0.000000  100.000000

  Cell parameters (Angstroms/Degrees):

  a =     100.0000    alpha =  90.0000
  b =     100.0000    beta  =  90.0000
  c =     100.0000    gamma =  90.0000

  Initial cell volume =     1000000.000000 Angs**3

  Temperature of configuration = 0.5000E+05 K 

  Pressure of configuration =         0.000 GPa 

  Fractional coordinates of asymmetric unit :

--------------------------------------------------------------------------------
   No.  Atomic       x           y          z         Charge      Occupancy
        Label      (Frac)      (Frac)     (Frac)        (e)         (Frac)  
--------------------------------------------------------------------------------
      1 C7    c    0.519650    0.520240    0.566960    -0.03000    1.000000    
      2 C3    c    0.522020 *  0.508200 *  0.575620 *   0.00000    1.000000    
      3 C2    c    0.524960 *  0.509820 *  0.589150 *  -0.11500    1.000000    
      4 C2    c    0.527600 *  0.498750 *  0.597210 *  -0.11500    1.000000    
      5 C2    c    0.527450 *  0.486060 *  0.591720 *  -0.11500    1.000000    
      6 C2    c    0.524650 *  0.484340 *  0.578270 *  -0.11500    1.000000    
      7 O1    c    0.533060 *  0.541600 *  0.530860 *  -0.50000    1.000000    
      8 O2    c    0.554430 *  0.546430 *  0.535800 *  -0.17000    1.000000    
      9 C2    c    0.521840 *  0.495330 *  0.570270 *  -0.11500    1.000000    
     10 C5    c    0.532010 *  0.525510 *  0.559570 *  -0.12000    1.000000    
     11 C5    c    0.535750 *  0.517570 *  0.547080 *  -0.12000    1.000000    
     12 C5    c    0.547400 *  0.524250 *  0.539610 *  -0.12000    1.000000    
     13 C4    c    0.543910 *  0.538170 *  0.534990 *   0.70000    1.000000    
     14 C6    c    0.551990 *  0.560270 *  0.531980 *  -0.18000    1.000000    
     15 H1    c    0.525080 *  0.519310 *  0.592870 *   0.11500    1.000000    
     16 H1    c    0.530130 *  0.500250 *  0.607030 *   0.11500    1.000000    
     17 H1    c    0.529870 *  0.478130 *  0.597470 *   0.11500    1.000000    
     18 H1    c    0.524110 *  0.475330 *  0.574030 *   0.11500    1.000000    
     19 H1    c    0.519350 *  0.493060 *  0.560520 *   0.11500    1.000000    
     20 H2    c    0.530150 *  0.535050 *  0.556900 *   0.06000    1.000000    
     21 H2    c    0.540310 *  0.525630 *  0.566560 *   0.06000    1.000000    
     22 H2    c    0.527630 *  0.517030 *  0.540280 *   0.06000    1.000000    
     23 H2    c    0.538250 *  0.508070 *  0.549830 *   0.06000    1.000000    
     24 H2    c    0.555400 *  0.524800 *  0.545380 *   0.06000    1.000000    
     25 H2    c    0.549990 *  0.519230 *  0.531120 *   0.06000    1.000000    
     26 H2    c    0.547500 *  0.560700 *  0.523500 *   0.06000    1.000000    
     27 H2    c    0.545650 *  0.564520 *  0.539440 *   0.06000    1.000000    
     28 H2    c    0.561570 *  0.564260 *  0.531430 *   0.06000    1.000000    
--------------------------------------------------------------------------------



  Molecule list generated from bond lengths :

  Total number of molecules =     1

--------------------------------------------------------------------------------
Molecule No./:  Atoms
Periodicity  :  
--------------------------------------------------------------------------------
     1  0    : C7   c     1 C3   c     2 C2   c     3 C2   c     4 C2   c     5
             : C2   c     6 O1   c     7 O2   c     8 C2   c     9 C5   c    10
             : C5   c    11 C5   c    12 C4   c    13 C6   c    14 H1   c    15
             : H1   c    16 H1   c    17 H1   c    18 H1   c    19 H2   c    20
             : H2   c    21 H2   c    22 H2   c    23 H2   c    24 H2   c    25
             : H2   c    26 H2   c    27 H2   c    28
--------------------------------------------------------------------------------

  Brillouin zone sampling points :

--------------------------------------------------------------------------------
  Point number          x          y          z            Weight
--------------------------------------------------------------------------------
        1           0.000000   0.000000   0.000000         1.0000
--------------------------------------------------------------------------------


********************************************************************************
*  General input information                                                   *
********************************************************************************

  Species output for all configurations : 

--------------------------------------------------------------------------------
  Species    Type    Atomic    Atomic    Charge       Radii (Angs)     Library
                     Number     Mass       (e)     Cova   Ionic  VDW   Symbol
--------------------------------------------------------------------------------
    C7       Core        6      12.01  -0.030000   0.770  0.000  1.530          
    C3       Core        6      12.01   0.000000   0.770  0.000  1.530          
    C2       Core        6      12.01  -0.115000   0.770  0.000  1.530          
    O1       Core        8      16.00  -0.500000   0.730  0.000  1.360          
    O2       Core        8      16.00  -0.170000   0.730  0.000  1.360          
    C5       Core        6      12.01  -0.120000   0.770  0.000  1.530          
    C4       Core        6      12.01   0.700000   0.770  0.000  1.530          
    C6       Core        6      12.01  -0.180000   0.770  0.000  1.530          
    H1       Core        1       1.01   0.115000   0.370  0.000  1.080          
    H2       Core        1       1.01   0.060000   0.370  0.000  1.080          
--------------------------------------------------------------------------------


  Lattice summation method = Wolf et al

  Modified method - smoothed energy only / correct forces

  Eta    =     0.223000 Angstrom**-1
  Cutoff =    12.000000 Angstrom

  Time limit = Infinity

  Maximum range for interatomic potentials =    100000.000000 Angstroms

  Intramolecular potentials :

--------------------------------------------------------------------------------
Atom  Types   Potential         A         B         C         D     Cutoffs(Ang)
  1     2                                                            Min    Max 
--------------------------------------------------------------------------------
C2   c C2   c Harmonic       40.7      1.40      0.00      0.00     0.000 1 Bond
                                                                    single      
C2   c C3   c Harmonic       40.7      1.40      0.00      0.00     0.000 1 Bond
                                                                    single      
C3   c C7   c Harmonic       27.5      1.51      0.00      0.00     0.000 1 Bond
                                                                    single      
H1   c C2   c Harmonic       31.8      1.08      0.00      0.00     0.000 1 Bond
                                                                    single      
C5   c C7   c Harmonic       23.2      1.53      0.00      0.00     0.000 1 Bond
                                                                    single      
C5   c C5   c Harmonic       23.2      1.53      0.00      0.00     0.000 1 Bond
                                                                    single      
C4   c C5   c Harmonic       27.5      1.51      0.00      0.00     0.000 1 Bond
                                                                    single      
C6   c O2   c Harmonic       27.8      1.41      0.00      0.00     0.000 1 Bond
                                                                    single      
H2   c C5   c Harmonic       29.5      1.09      0.00      0.00     0.000 1 Bond
                                                                    single      
H2   c C6   c Harmonic       29.5      1.09      0.00      0.00     0.000 1 Bond
                                                                    single      
C4   c O1   c Harmonic       45.1      1.23      0.00      0.00     0.000 1 Bond
                                                                    single      
C4   c O2   c Harmonic       18.6      1.33      0.00      0.00     0.000 1 Bond
                                                                    single      
--------------------------------------------------------------------------------

  Intermolecular potentials :

--------------------------------------------------------------------------------
Atom  Types   Potential         A         B         C         D     Cutoffs(Ang)
  1     2                                                            Min    Max 
--------------------------------------------------------------------------------
C2   c C2   c Lenn/es 12  6 0.700E-01  3.55      0.00      0.00     0.000 12.000
C2   c C3   c Lenn/es 12  6 0.700E-01  3.55      0.00      0.00     0.000 12.000
C3   c C3   c Lenn/es 12  6 0.700E-01  3.55      0.00      0.00     0.000 12.000
C2   c C4   c Lenn/es 12  6 0.857E-01  3.65      0.00      0.00     0.000 12.000
C3   c C4   c Lenn/es 12  6 0.857E-01  3.65      0.00      0.00     0.000 12.000
C4   c C4   c Lenn/es 12  6 0.105      3.75      0.00      0.00     0.000 12.000
C2   c C5   c Lenn/es 12  6 0.680E-01  3.52      0.00      0.00     0.000 12.000
C3   c C5   c Lenn/es 12  6 0.680E-01  3.52      0.00      0.00     0.000 12.000
C4   c C5   c Lenn/es 12  6 0.832E-01  3.62      0.00      0.00     0.000 12.000
C5   c C5   c Lenn/es 12  6 0.660E-01  3.50      0.00      0.00     0.000 12.000
C2   c C6   c Lenn/es 12  6 0.680E-01  3.52      0.00      0.00     0.000 12.000
C3   c C6   c Lenn/es 12  6 0.680E-01  3.52      0.00      0.00     0.000 12.000
C4   c C6   c Lenn/es 12  6 0.832E-01  3.62      0.00      0.00     0.000 12.000
C5   c C6   c Lenn/es 12  6 0.660E-01  3.50      0.00      0.00     0.000 12.000
C6   c C6   c Lenn/es 12  6 0.660E-01  3.50      0.00      0.00     0.000 12.000
C2   c C7   c Lenn/es 12  6 0.680E-01  3.52      0.00      0.00     0.000 12.000
C3   c C7   c Lenn/es 12  6 0.680E-01  3.52      0.00      0.00     0.000 12.000
C4   c C7   c Lenn/es 12  6 0.832E-01  3.62      0.00      0.00     0.000 12.000
C5   c C7   c Lenn/es 12  6 0.660E-01  3.50      0.00      0.00     0.000 12.000
C6   c C7   c Lenn/es 12  6 0.660E-01  3.50      0.00      0.00     0.000 12.000
C7   c C7   c Lenn/es 12  6 0.660E-01  3.50      0.00      0.00     0.000 12.000
C2   c O1   c Lenn/es 12  6 0.121      3.24      0.00      0.00     0.000 12.000
C3   c O1   c Lenn/es 12  6 0.121      3.24      0.00      0.00     0.000 12.000
C4   c O1   c Lenn/es 12  6 0.148      3.33      0.00      0.00     0.000 12.000
C5   c O1   c Lenn/es 12  6 0.118      3.22      0.00      0.00     0.000 12.000
C6   c O1   c Lenn/es 12  6 0.118      3.22      0.00      0.00     0.000 12.000
C7   c O1   c Lenn/es 12  6 0.118      3.22      0.00      0.00     0.000 12.000
O1   c O1   c Lenn/es 12  6 0.210      2.96      0.00      0.00     0.000 12.000
C2   c O2   c Lenn/es 12  6 0.990E-01  3.21      0.00      0.00     0.000 12.000
C3   c O2   c Lenn/es 12  6 0.990E-01  3.21      0.00      0.00     0.000 12.000
C4   c O2   c Lenn/es 12  6 0.121      3.30      0.00      0.00     0.000 12.000
C5   c O2   c Lenn/es 12  6 0.961E-01  3.19      0.00      0.00     0.000 12.000
C6   c O2   c Lenn/es 12  6 0.961E-01  3.19      0.00      0.00     0.000 12.000
C7   c O2   c Lenn/es 12  6 0.961E-01  3.19      0.00      0.00     0.000 12.000
O1   c O2   c Lenn/es 12  6 0.171      2.93      0.00      0.00     0.000 12.000
O2   c O2   c Lenn/es 12  6 0.140      2.90      0.00      0.00     0.000 12.000
H1   c C2   c Lenn/es 12  6 0.458E-01  2.93      0.00      0.00     0.000 12.000
H1   c C3   c Lenn/es 12  6 0.458E-01  2.93      0.00      0.00     0.000 12.000
H1   c C4   c Lenn/es 12  6 0.561E-01  3.01      0.00      0.00     0.000 12.000
H1   c C5   c Lenn/es 12  6 0.445E-01  2.91      0.00      0.00     0.000 12.000
H1   c C6   c Lenn/es 12  6 0.445E-01  2.91      0.00      0.00     0.000 12.000
H1   c C7   c Lenn/es 12  6 0.445E-01  2.91      0.00      0.00     0.000 12.000
H1   c O1   c Lenn/es 12  6 0.794E-01  2.68      0.00      0.00     0.000 12.000
H1   c O2   c Lenn/es 12  6 0.648E-01  2.65      0.00      0.00     0.000 12.000
H1   c H1   c Lenn/es 12  6 0.300E-01  2.42      0.00      0.00     0.000 12.000
H2   c C2   c Lenn/es 12  6 0.458E-01  2.98      0.00      0.00     0.000 12.000
H2   c C3   c Lenn/es 12  6 0.458E-01  2.98      0.00      0.00     0.000 12.000
H2   c C4   c Lenn/es 12  6 0.561E-01  3.06      0.00      0.00     0.000 12.000
H2   c C5   c Lenn/es 12  6 0.445E-01  2.96      0.00      0.00     0.000 12.000
H2   c C6   c Lenn/es 12  6 0.445E-01  2.96      0.00      0.00     0.000 12.000
H2   c C7   c Lenn/es 12  6 0.445E-01  2.96      0.00      0.00     0.000 12.000
H2   c O1   c Lenn/es 12  6 0.794E-01  2.72      0.00      0.00     0.000 12.000
H2   c O2   c Lenn/es 12  6 0.648E-01  2.69      0.00      0.00     0.000 12.000
H1   c H2   c Lenn/es 12  6 0.300E-01  2.46      0.00      0.00     0.000 12.000
H2   c H2   c Lenn/es 12  6 0.300E-01  2.50      0.00      0.00     0.000 12.000
--------------------------------------------------------------------------------

  Intramolecular Three-body potentials :

  Cosine Harmonic form:

--------------------------------------------------------------------------------
Atom    Atom    Atom           Force Constants            Theta     Cutoffs  
  1       2       3               (eV)                    (deg)  1-2  1-3  2-3
--------------------------------------------------------------------------------
C2    c C2    c C2    c                  5.4639184       120.000     Bonded
C3    c C2    c C2    c                  5.4639184       120.000     Bonded
C2    c C2    c C3    c                  5.4639184       120.000     Bonded
C3    c C2    c C7    c                  6.0710205       120.000     Bonded
C2    c H1    c C2    c                  3.0355102       120.000     Bonded
C2    c H1    c C3    c                  3.0355102       120.000     Bonded
C5    c C5    c C7    c                  5.0606292       112.700     Bonded
C5    c C5    c C5    c                  5.0606292       112.700     Bonded
C7    c C3    c C5    c                  5.4639184       114.000     Bonded
C5    c C4    c C5    c                  5.4639184       111.100     Bonded
C5    c H2    c C7    c                  3.2523324       110.700     Bonded
C5    c H2    c C5    c                  3.2523324       110.700     Bonded
C5    c H2    c C4    c                  3.0355102       109.500     Bonded
C6    c H2    c O2    c                  3.0355102       109.500     Bonded
C5    c H2    c H2    c                  2.8620525       107.800     Bonded
C6    c H2    c H2    c                  2.8620525       107.800     Bonded
C4    c C5    c O2    c                  7.0250380       111.400     Bonded
C4    c C5    c O1    c                  6.9383091       120.400     Bonded
C4    c O1    c O2    c                  7.1984957       123.400     Bonded
O2    c C4    c C6    c                  7.1984957       116.900     Bonded
--------------------------------------------------------------------------------

  Intramolecular Four-body potentials :

  Standard form:

--------------------------------------------------------------------------------
         Atom Types             Force cst Sign Phase Phi0         Cutoffs
   1       2       3       4       (eV)                     1-2  2-3  3-4  4-1
--------------------------------------------------------------------------------
H1    c C2    c C2    c H1    c  0.3144     -   2     0.00  Bonded              
H1    c C2    c C2    c C2    c  0.3144     -   2     0.00  Bonded              
H1    c C2    c C2    c C3    c  0.3144     -   2     0.00  Bonded              
H1    c C2    c C3    c C7    c  0.3144     -   2     0.00  Bonded              
C7    c C5    c C5    c C5    c  0.2819E-01 +   1     0.00  Bonded              
C7    c C5    c C5    c C5    c  -.1084E-02 -   2     0.00  Bonded              
C7    c C5    c C5    c C5    c  0.4336E-02 +   3     0.00  Bonded              
C5    c C5    c C5    c H2    c  0.6505E-02 +   3     0.00  Bonded              
C7    c C5    c C5    c H2    c  0.6505E-02 +   3     0.00  Bonded              
H2    c C5    c C5    c H2    c  0.6505E-02 +   3     0.00  Bonded              
O1    c C4    c C5    c C5    c  -.6006E-02 +   1     0.00  Bonded              
O1    c C4    c C5    c C5    c  0.2663E-01 -   2     0.00  Bonded              
O1    c C4    c C5    c C5    c  -.1505E-01 +   3     0.00  Bonded              
O2    c C4    c C5    c C5    c  -.1199E-01 -   2     0.00  Bonded              
O2    c C4    c C5    c H2    c  0.2862E-02 -   2     0.00  Bonded              
C5    c C4    c O2    c C6    c  0.1012     +   1     0.00  Bonded              
C5    c C4    c O2    c C6    c  0.1111     -   2     0.00  Bonded              
O1    c C4    c O2    c C6    c  0.1111     -   2     0.00  Bonded              
C4    c O2    c C6    c H2    c  0.4293E-02 +   3     0.00  Bonded              
--------------------------------------------------------------------------------

********************************************************************************
*  Output for configuration   1                                                *
********************************************************************************


  Components of energy : 

--------------------------------------------------------------------------------
  Interatomic potentials     =           1.09366501 eV
  Three-body potentials      =           0.12687276 eV
  Four-body potentials       =           0.02595407 eV
  Out of plane potentials    =           0.00000000 eV
  Monopole - monopole (real) =           1.80616423 eV
  Monopole - monopole (recip)=           0.00000000 eV
  Monopole - monopole (total)=           1.80616423 eV
  Wolf sum self energy       =          -1.82999609 eV
--------------------------------------------------------------------------------
  Total lattice energy       =           1.22265998 eV
--------------------------------------------------------------------------------
  Total lattice energy       =             117.9680 kJ/(mole unit cells)
--------------------------------------------------------------------------------


  Number of variables =       81

  Maximum number of calculations  =         10000
  Maximum Hessian update interval =            10
  Maximum step size               =   1.000000000
  Maximum parameter tolerance     =   0.000010000
  Maximum function  tolerance     =   0.000010000
  Maximum gradient  tolerance     =   0.001000000
  Maximum gradient  component     =   0.010000000

  Symmetry not applied to optimisation

  Newton-Raphson optimiser to be used

  BFGS hessian update to be used

  Start of bulk optimisation :

  Cycle:      0 Energy:         1.222660  Gnorm:     13.759476  CPU:    0.032
  ** Hessian calculated **
  Cycle:      1 Energy:         0.236482  Gnorm:      3.294442  CPU:    0.040
  ** Hessian calculated **
  Cycle:      2 Energy:         0.140268  Gnorm:      1.749522  CPU:    0.052
  Cycle:      3 Energy:         0.097540  Gnorm:      1.316798  CPU:    0.060
  Cycle:      4 Energy:         0.072254  Gnorm:      1.246786  CPU:    0.068
  Cycle:      5 Energy:         0.059332  Gnorm:      0.809317  CPU:    0.076
  Cycle:      6 Energy:         0.051166  Gnorm:      0.809910  CPU:    0.084
  Cycle:      7 Energy:         0.042298  Gnorm:      0.658850  CPU:    0.092
  Cycle:      8 Energy:         0.029561  Gnorm:      0.802523  CPU:    0.100
  Cycle:      9 Energy:         0.018716  Gnorm:      0.965401  CPU:    0.108
  Cycle:     10 Energy:         0.001346  Gnorm:      0.801499  CPU:    0.116
  Cycle:     11 Energy:        -0.009653  Gnorm:      0.843804  CPU:    0.124
  ** Hessian calculated **
  Cycle:     12 Energy:        -0.015185  Gnorm:      0.638491  CPU:    0.136
  Cycle:     13 Energy:        -0.020322  Gnorm:      0.627894  CPU:    0.144
  Cycle:     14 Energy:        -0.025288  Gnorm:      0.441151  CPU:    0.152
  Cycle:     15 Energy:        -0.027791  Gnorm:      0.500398  CPU:    0.160
  Cycle:     16 Energy:        -0.031637  Gnorm:      0.418880  CPU:    0.168
  Cycle:     17 Energy:        -0.033896  Gnorm:      0.365170  CPU:    0.176
  Cycle:     18 Energy:        -0.035696  Gnorm:      0.319313  CPU:    0.184
  Cycle:     19 Energy:        -0.037882  Gnorm:      0.353295  CPU:    0.192
  Cycle:     20 Energy:        -0.039554  Gnorm:      0.287251  CPU:    0.200
  Cycle:     21 Energy:        -0.040824  Gnorm:      0.212870  CPU:    0.208
  ** Hessian calculated **
  Cycle:     22 Energy:        -0.043133  Gnorm:      0.283456  CPU:    0.224
  Cycle:     23 Energy:        -0.044920  Gnorm:      0.151064  CPU:    0.232
  Cycle:     24 Energy:        -0.045131  Gnorm:      0.114016  CPU:    0.240
  ** Hessian calculated **
  Cycle:     25 Energy:        -0.045241  Gnorm:      0.082120  CPU:    0.252
  Cycle:     26 Energy:        -0.045295  Gnorm:      0.044730  CPU:    0.260
  Cycle:     27 Energy:        -0.045316  Gnorm:      0.036149  CPU:    0.268
  Cycle:     28 Energy:        -0.045334  Gnorm:      0.026141  CPU:    0.276
  Cycle:     29 Energy:        -0.045353  Gnorm:      0.038751  CPU:    0.284
  Cycle:     30 Energy:        -0.045377  Gnorm:      0.041591  CPU:    0.288
  Cycle:     31 Energy:        -0.045418  Gnorm:      0.054464  CPU:    0.300
  Cycle:     32 Energy:        -0.045471  Gnorm:      0.066753  CPU:    0.308
  Cycle:     33 Energy:        -0.045538  Gnorm:      0.063368  CPU:    0.316
  Cycle:     34 Energy:        -0.045618  Gnorm:      0.074875  CPU:    0.324
  ** Hessian calculated **
  Cycle:     35 Energy:        -0.045653  Gnorm:      0.038925  CPU:    0.336
  Cycle:     36 Energy:        -0.045676  Gnorm:      0.037833  CPU:    0.344
  Cycle:     37 Energy:        -0.045694  Gnorm:      0.030622  CPU:    0.348
  Cycle:     38 Energy:        -0.045709  Gnorm:      0.030693  CPU:    0.356
  Cycle:     39 Energy:        -0.045725  Gnorm:      0.037664  CPU:    0.364
  Cycle:     40 Energy:        -0.045745  Gnorm:      0.031413  CPU:    0.372
  Cycle:     41 Energy:        -0.045769  Gnorm:      0.042848  CPU:    0.380
  Cycle:     42 Energy:        -0.045802  Gnorm:      0.046946  CPU:    0.384
  Cycle:     43 Energy:        -0.045839  Gnorm:      0.054609  CPU:    0.388
  Cycle:     44 Energy:        -0.045871  Gnorm:      0.046131  CPU:    0.396
  ** Hessian calculated **
  Cycle:     45 Energy:        -0.046062  Gnorm:      0.044832  CPU:    0.416
  Cycle:     46 Energy:        -0.046221  Gnorm:      0.050478  CPU:    0.428
  Cycle:     47 Energy:        -0.046350  Gnorm:      0.045303  CPU:    0.440
  Cycle:     48 Energy:        -0.046491  Gnorm:      0.094632  CPU:    0.448
  ** Hessian calculated **
  Cycle:     49 Energy:        -0.046556  Gnorm:      0.040559  CPU:    0.456
  Cycle:     50 Energy:        -0.046571  Gnorm:      0.023183  CPU:    0.464
  Cycle:     51 Energy:        -0.046576  Gnorm:      0.015783  CPU:    0.472
  Cycle:     52 Energy:        -0.046579  Gnorm:      0.010399  CPU:    0.480
  Cycle:     53 Energy:        -0.046581  Gnorm:      0.010693  CPU:    0.488
  Cycle:     54 Energy:        -0.046584  Gnorm:      0.012468  CPU:    0.496
  Cycle:     55 Energy:        -0.046587  Gnorm:      0.013861  CPU:    0.504
  Cycle:     56 Energy:        -0.046591  Gnorm:      0.019012  CPU:    0.512
  Cycle:     57 Energy:        -0.046598  Gnorm:      0.019745  CPU:    0.516
  Cycle:     58 Energy:        -0.046610  Gnorm:      0.021595  CPU:    0.524
  ** Hessian calculated **
  Cycle:     59 Energy:        -0.046614  Gnorm:      0.019747  CPU:    0.536
  Cycle:     60 Energy:        -0.046620  Gnorm:      0.015617  CPU:    0.544
  Cycle:     61 Energy:        -0.046623  Gnorm:      0.013202  CPU:    0.552
  Cycle:     62 Energy:        -0.046626  Gnorm:      0.010605  CPU:    0.560
  Cycle:     63 Energy:        -0.046627  Gnorm:      0.012303  CPU:    0.568
  Cycle:     64 Energy:        -0.046630  Gnorm:      0.011461  CPU:    0.576
  Cycle:     65 Energy:        -0.046633  Gnorm:      0.014412  CPU:    0.584
  Cycle:     66 Energy:        -0.046636  Gnorm:      0.019359  CPU:    0.592
  Cycle:     67 Energy:        -0.046644  Gnorm:      0.016774  CPU:    0.600
  Cycle:     68 Energy:        -0.046653  Gnorm:      0.016198  CPU:    0.608
  ** Hessian calculated **
  Cycle:     69 Energy:        -0.046656  Gnorm:      0.017214  CPU:    0.616
  Cycle:     70 Energy:        -0.046660  Gnorm:      0.014793  CPU:    0.624
  Cycle:     71 Energy:        -0.046664  Gnorm:      0.014717  CPU:    0.632
  Cycle:     72 Energy:        -0.046667  Gnorm:      0.012443  CPU:    0.640
  Cycle:     73 Energy:        -0.046669  Gnorm:      0.009606  CPU:    0.648
  Cycle:     74 Energy:        -0.046671  Gnorm:      0.011640  CPU:    0.652
  Cycle:     75 Energy:        -0.046673  Gnorm:      0.009235  CPU:    0.660
  Cycle:     76 Energy:        -0.046675  Gnorm:      0.013634  CPU:    0.668
  Cycle:     77 Energy:        -0.046678  Gnorm:      0.011911  CPU:    0.676
  Cycle:     78 Energy:        -0.046682  Gnorm:      0.015130  CPU:    0.684
  ** Hessian calculated **
  Cycle:     79 Energy:        -0.046685  Gnorm:      0.010643  CPU:    0.696
  Cycle:     80 Energy:        -0.046687  Gnorm:      0.011490  CPU:    0.704
  Cycle:     81 Energy:        -0.046688  Gnorm:      0.008551  CPU:    0.708
  Cycle:     82 Energy:        -0.046690  Gnorm:      0.010273  CPU:    0.716
  Cycle:     83 Energy:        -0.046692  Gnorm:      0.009616  CPU:    0.724
  Cycle:     84 Energy:        -0.046694  Gnorm:      0.010441  CPU:    0.732
  Cycle:     85 Energy:        -0.046696  Gnorm:      0.012167  CPU:    0.740
  Cycle:     86 Energy:        -0.046699  Gnorm:      0.013764  CPU:    0.748
  Cycle:     87 Energy:        -0.046702  Gnorm:      0.013230  CPU:    0.756
  Cycle:     88 Energy:        -0.046705  Gnorm:      0.017770  CPU:    0.764
  ** Hessian calculated **
  Cycle:     89 Energy:        -0.046707  Gnorm:      0.011764  CPU:    0.772
  Cycle:     90 Energy:        -0.046710  Gnorm:      0.011572  CPU:    0.780
  Cycle:     91 Energy:        -0.046712  Gnorm:      0.010481  CPU:    0.788
  Cycle:     92 Energy:        -0.046714  Gnorm:      0.009984  CPU:    0.796
  Cycle:     93 Energy:        -0.046716  Gnorm:      0.010011  CPU:    0.804
  Cycle:     94 Energy:        -0.046718  Gnorm:      0.009764  CPU:    0.812
  Cycle:     95 Energy:        -0.046719  Gnorm:      0.008090  CPU:    0.820
  Cycle:     96 Energy:        -0.046721  Gnorm:      0.010188  CPU:    0.824
  Cycle:     97 Energy:        -0.046722  Gnorm:      0.010125  CPU:    0.832
  Cycle:     98 Energy:        -0.046724  Gnorm:      0.013375  CPU:    0.840
  ** Hessian calculated **
  Cycle:     99 Energy:        -0.046726  Gnorm:      0.008740  CPU:    0.852
  Cycle:    100 Energy:        -0.046727  Gnorm:      0.008830  CPU:    0.860
  Cycle:    101 Energy:        -0.046728  Gnorm:      0.007120  CPU:    0.868
  Cycle:    102 Energy:        -0.046729  Gnorm:      0.008264  CPU:    0.876
  Cycle:    103 Energy:        -0.046731  Gnorm:      0.009444  CPU:    0.880
  Cycle:    104 Energy:        -0.046733  Gnorm:      0.008659  CPU:    0.888
  Cycle:    105 Energy:        -0.046734  Gnorm:      0.010437  CPU:    0.896
  Cycle:    106 Energy:        -0.046736  Gnorm:      0.010901  CPU:    0.904
  Cycle:    107 Energy:        -0.046738  Gnorm:      0.012115  CPU:    0.912
  Cycle:    108 Energy:        -0.046741  Gnorm:      0.015745  CPU:    0.920
  ** Hessian calculated **
  Cycle:    109 Energy:        -0.046742  Gnorm:      0.010229  CPU:    0.932
  Cycle:    110 Energy:        -0.046744  Gnorm:      0.010220  CPU:    0.940
  Cycle:    111 Energy:        -0.046746  Gnorm:      0.009014  CPU:    0.948
  Cycle:    112 Energy:        -0.046747  Gnorm:      0.008114  CPU:    0.952
  Cycle:    113 Energy:        -0.046749  Gnorm:      0.009079  CPU:    0.960
  Cycle:    114 Energy:        -0.046750  Gnorm:      0.008948  CPU:    0.968
  Cycle:    115 Energy:        -0.046751  Gnorm:      0.007283  CPU:    0.976
  Cycle:    116 Energy:        -0.046752  Gnorm:      0.008889  CPU:    0.984
  Cycle:    117 Energy:        -0.046754  Gnorm:      0.008633  CPU:    0.992
  Cycle:    118 Energy:        -0.046755  Gnorm:      0.011894  CPU:    1.000
  ** Hessian calculated **
  Cycle:    119 Energy:        -0.046756  Gnorm:      0.007956  CPU:    1.012
  Cycle:    120 Energy:        -0.046757  Gnorm:      0.007893  CPU:    1.016
  Cycle:    121 Energy:        -0.046758  Gnorm:      0.006431  CPU:    1.024
  Cycle:    122 Energy:        -0.046759  Gnorm:      0.007461  CPU:    1.032
  Cycle:    123 Energy:        -0.046760  Gnorm:      0.008661  CPU:    1.040
  Cycle:    124 Energy:        -0.046762  Gnorm:      0.007783  CPU:    1.048
  Cycle:    125 Energy:        -0.046763  Gnorm:      0.009200  CPU:    1.056
  Cycle:    126 Energy:        -0.046765  Gnorm:      0.009870  CPU:    1.064
  Cycle:    127 Energy:        -0.046766  Gnorm:      0.010647  CPU:    1.072
  Cycle:    128 Energy:        -0.046768  Gnorm:      0.014340  CPU:    1.080
  ** Hessian calculated **
  Cycle:    129 Energy:        -0.046770  Gnorm:      0.009500  CPU:    1.088
  Cycle:    130 Energy:        -0.046771  Gnorm:      0.009307  CPU:    1.096
  Cycle:    131 Energy:        -0.046772  Gnorm:      0.008113  CPU:    1.104
  Cycle:    132 Energy:        -0.046773  Gnorm:      0.007183  CPU:    1.112
  Cycle:    133 Energy:        -0.046775  Gnorm:      0.008156  CPU:    1.120
  Cycle:    134 Energy:        -0.046776  Gnorm:      0.007992  CPU:    1.128
  Cycle:    135 Energy:        -0.046777  Gnorm:      0.006638  CPU:    1.136
  Cycle:    136 Energy:        -0.046778  Gnorm:      0.008178  CPU:    1.144
  Cycle:    137 Energy:        -0.046779  Gnorm:      0.008030  CPU:    1.152
  Cycle:    138 Energy:        -0.046780  Gnorm:      0.010886  CPU:    1.160
  ** Hessian calculated **
  Cycle:    139 Energy:        -0.046781  Gnorm:      0.007497  CPU:    1.168
  Cycle:    140 Energy:        -0.046782  Gnorm:      0.007306  CPU:    1.176
  Cycle:    141 Energy:        -0.046783  Gnorm:      0.005928  CPU:    1.184
  Cycle:    142 Energy:        -0.046784  Gnorm:      0.006898  CPU:    1.192
  Cycle:    143 Energy:        -0.046785  Gnorm:      0.007899  CPU:    1.204
  Cycle:    144 Energy:        -0.046786  Gnorm:      0.007080  CPU:    1.212
  Cycle:    145 Energy:        -0.046787  Gnorm:      0.008421  CPU:    1.216
  Cycle:    146 Energy:        -0.046788  Gnorm:      0.009132  CPU:    1.224
  Cycle:    147 Energy:        -0.046790  Gnorm:      0.009844  CPU:    1.232
  Cycle:    148 Energy:        -0.046791  Gnorm:      0.013371  CPU:    1.240
  ** Hessian calculated **
  Cycle:    149 Energy:        -0.046792  Gnorm:      0.009033  CPU:    1.252
  Cycle:    150 Energy:        -0.046794  Gnorm:      0.008653  CPU:    1.260
  Cycle:    151 Energy:        -0.046795  Gnorm:      0.007505  CPU:    1.268
  Cycle:    152 Energy:        -0.046796  Gnorm:      0.006584  CPU:    1.272
  Cycle:    153 Energy:        -0.046797  Gnorm:      0.007442  CPU:    1.280
  Cycle:    154 Energy:        -0.046798  Gnorm:      0.007302  CPU:    1.288
  Cycle:    155 Energy:        -0.046799  Gnorm:      0.006175  CPU:    1.296
  Cycle:    156 Energy:        -0.046799  Gnorm:      0.007621  CPU:    1.304
  Cycle:    157 Energy:        -0.046800  Gnorm:      0.007674  CPU:    1.312
  Cycle:    158 Energy:        -0.046801  Gnorm:      0.010215  CPU:    1.320
  ** Hessian calculated **
  Cycle:    159 Energy:        -0.046803  Gnorm:      0.007213  CPU:    1.328
  Cycle:    160 Energy:        -0.046803  Gnorm:      0.006896  CPU:    1.336
  Cycle:    161 Energy:        -0.046804  Gnorm:      0.005579  CPU:    1.344
  Cycle:    162 Energy:        -0.046805  Gnorm:      0.006531  CPU:    1.352
  Cycle:    163 Energy:        -0.046805  Gnorm:      0.007309  CPU:    1.360
  Cycle:    164 Energy:        -0.046807  Gnorm:      0.006533  CPU:    1.368
  Cycle:    165 Energy:        -0.046807  Gnorm:      0.007849  CPU:    1.376
  Cycle:    166 Energy:        -0.046809  Gnorm:      0.008592  CPU:    1.380
  Cycle:    167 Energy:        -0.046810  Gnorm:      0.009319  CPU:    1.388
  Cycle:    168 Energy:        -0.046811  Gnorm:      0.012680  CPU:    1.396
  ** Hessian calculated **
  Cycle:    169 Energy:        -0.046812  Gnorm:      0.008714  CPU:    1.408
  Cycle:    170 Energy:        -0.046814  Gnorm:      0.008181  CPU:    1.416
  Cycle:    171 Energy:        -0.046815  Gnorm:      0.007087  CPU:    1.420
  Cycle:    172 Energy:        -0.046815  Gnorm:      0.006161  CPU:    1.428
  Cycle:    173 Energy:        -0.046816  Gnorm:      0.006900  CPU:    1.436
  Cycle:    174 Energy:        -0.046817  Gnorm:      0.006774  CPU:    1.444
  Cycle:    175 Energy:        -0.046818  Gnorm:      0.005822  CPU:    1.452
  Cycle:    176 Energy:        -0.046818  Gnorm:      0.007188  CPU:    1.460
  Cycle:    177 Energy:        -0.046819  Gnorm:      0.007413  CPU:    1.468
  Cycle:    178 Energy:        -0.046820  Gnorm:      0.009753  CPU:    1.476
  ** Hessian calculated **
  Cycle:    179 Energy:        -0.046821  Gnorm:      0.007019  CPU:    1.484
  Cycle:    180 Energy:        -0.046822  Gnorm:      0.006600  CPU:    1.492
  Cycle:    181 Energy:        -0.046823  Gnorm:      0.005328  CPU:    1.500
  Cycle:    182 Energy:        -0.046823  Gnorm:      0.006290  CPU:    1.508
  Cycle:    183 Energy:        -0.046824  Gnorm:      0.006846  CPU:    1.516
  Cycle:    184 Energy:        -0.046825  Gnorm:      0.006114  CPU:    1.524
  Cycle:    185 Energy:        -0.046826  Gnorm:      0.007404  CPU:    1.532
  Cycle:    186 Energy:        -0.046827  Gnorm:      0.008184  CPU:    1.540
  Cycle:    187 Energy:        -0.046828  Gnorm:      0.008937  CPU:    1.544
  Cycle:    188 Energy:        -0.046829  Gnorm:      0.012153  CPU:    1.552
  ** Hessian calculated **
  Cycle:    189 Energy:        -0.046830  Gnorm:      0.008486  CPU:    1.564
  Cycle:    190 Energy:        -0.046831  Gnorm:      0.007832  CPU:    1.572
  Cycle:    191 Energy:        -0.046832  Gnorm:      0.006788  CPU:    1.580
  Cycle:    192 Energy:        -0.046833  Gnorm:      0.005849  CPU:    1.584
  Cycle:    193 Energy:        -0.046834  Gnorm:      0.006474  CPU:    1.592
  Cycle:    194 Energy:        -0.046834  Gnorm:      0.006356  CPU:    1.600
  Cycle:    195 Energy:        -0.046835  Gnorm:      0.005533  CPU:    1.608
  Cycle:    196 Energy:        -0.046836  Gnorm:      0.006841  CPU:    1.616
  Cycle:    197 Energy:        -0.046836  Gnorm:      0.007190  CPU:    1.624
  Cycle:    198 Energy:        -0.046837  Gnorm:      0.009410  CPU:    1.632
  ** Hessian calculated **
  Cycle:    199 Energy:        -0.046838  Gnorm:      0.006865  CPU:    1.640
  Cycle:    200 Energy:        -0.046839  Gnorm:      0.006378  CPU:    1.648
  Cycle:    201 Energy:        -0.046839  Gnorm:      0.005132  CPU:    1.656
  Cycle:    202 Energy:        -0.046840  Gnorm:      0.006117  CPU:    1.664
  Cycle:    203 Energy:        -0.046841  Gnorm:      0.006466  CPU:    1.672
  Cycle:    204 Energy:        -0.046842  Gnorm:      0.005798  CPU:    1.680
  Cycle:    205 Energy:        -0.046842  Gnorm:      0.007051  CPU:    1.688
  Cycle:    206 Energy:        -0.046843  Gnorm:      0.007856  CPU:    1.692
  Cycle:    207 Energy:        -0.046844  Gnorm:      0.008644  CPU:    1.700
  Cycle:    208 Energy:        -0.046845  Gnorm:      0.011719  CPU:    1.708
  ** Hessian calculated **
  Cycle:    209 Energy:        -0.046846  Gnorm:      0.008307  CPU:    1.720
  Cycle:    210 Energy:        -0.046847  Gnorm:      0.007566  CPU:    1.728
  Cycle:    211 Energy:        -0.046848  Gnorm:      0.006570  CPU:    1.736
  Cycle:    212 Energy:        -0.046849  Gnorm:      0.005614  CPU:    1.744
  Cycle:    213 Energy:        -0.046850  Gnorm:      0.006128  CPU:    1.752
  Cycle:    214 Energy:        -0.046850  Gnorm:      0.006008  CPU:    1.760
  Cycle:    215 Energy:        -0.046851  Gnorm:      0.005286  CPU:    1.764
  Cycle:    216 Energy:        -0.046851  Gnorm:      0.006558  CPU:    1.772
  Cycle:    217 Energy:        -0.046852  Gnorm:      0.006982  CPU:    1.780
  Cycle:    218 Energy:        -0.046853  Gnorm:      0.009131  CPU:    1.788
  ** Hessian calculated **
  Cycle:    219 Energy:        -0.046854  Gnorm:      0.006725  CPU:    1.800
  Cycle:    220 Energy:        -0.046855  Gnorm:      0.006209  CPU:    1.808
  Cycle:    221 Energy:        -0.046855  Gnorm:      0.004964  CPU:    1.812
  Cycle:    222 Energy:        -0.046856  Gnorm:      0.005862  CPU:    1.820
  Cycle:    223 Energy:        -0.046856  Gnorm:      0.006141  CPU:    1.828
  Cycle:    224 Energy:        -0.046857  Gnorm:      0.005582  CPU:    1.836
  Cycle:    225 Energy:        -0.046858  Gnorm:      0.006766  CPU:    1.844
  Cycle:    226 Energy:        -0.046858  Gnorm:      0.007545  CPU:    1.852
  Cycle:    227 Energy:        -0.046859  Gnorm:      0.008420  CPU:    1.860
  Cycle:    228 Energy:        -0.046860  Gnorm:      0.011338  CPU:    1.868
  ** Hessian calculated **
  Cycle:    229 Energy:        -0.046861  Gnorm:      0.008151  CPU:    1.876
  Cycle:    230 Energy:        -0.046862  Gnorm:      0.007349  CPU:    1.884
  Cycle:    231 Energy:        -0.046863  Gnorm:      0.006394  CPU:    1.892
  Cycle:    232 Energy:        -0.046864  Gnorm:      0.005439  CPU:    1.900
  Cycle:    233 Energy:        -0.046864  Gnorm:      0.005844  CPU:    1.908
  Cycle:    234 Energy:        -0.046865  Gnorm:      0.005695  CPU:    1.912
  Cycle:    235 Energy:        -0.046866  Gnorm:      0.005084  CPU:    1.920
  Cycle:    236 Energy:        -0.046866  Gnorm:      0.006312  CPU:    1.928
  Cycle:    237 Energy:        -0.046867  Gnorm:      0.006787  CPU:    1.936
  Cycle:    238 Energy:        -0.046868  Gnorm:      0.008790  CPU:    1.944
  ** Hessian calculated **
  Cycle:    239 Energy:        -0.046868  Gnorm:      0.006581  CPU:    1.956
  Cycle:    240 Energy:        -0.046869  Gnorm:      0.006055  CPU:    1.964
  Cycle:    241 Energy:        -0.046869  Gnorm:      0.004827  CPU:    1.968
  Cycle:    242 Energy:        -0.046870  Gnorm:      0.005631  CPU:    1.976
  Cycle:    243 Energy:        -0.046870  Gnorm:      0.005878  CPU:    1.984
  Cycle:    244 Energy:        -0.046871  Gnorm:      0.005440  CPU:    1.992
  Cycle:    245 Energy:        -0.046872  Gnorm:      0.006512  CPU:    2.000
  Cycle:    246 Energy:        -0.046873  Gnorm:      0.007282  CPU:    2.008
  Cycle:    247 Energy:        -0.046873  Gnorm:      0.008210  CPU:    2.016
  Cycle:    248 Energy:        -0.046874  Gnorm:      0.011111  CPU:    2.024
  ** Hessian calculated **
  Cycle:    249 Energy:        -0.046875  Gnorm:      0.007999  CPU:    2.032
  Cycle:    250 Energy:        -0.046876  Gnorm:      0.007180  CPU:    2.040
  Cycle:    251 Energy:        -0.046877  Gnorm:      0.006245  CPU:    2.048
  Cycle:    252 Energy:        -0.046878  Gnorm:      0.005321  CPU:    2.056
  Cycle:    253 Energy:        -0.046878  Gnorm:      0.005622  CPU:    2.064
  Cycle:    254 Energy:        -0.046879  Gnorm:      0.005392  CPU:    2.072
  Cycle:    255 Energy:        -0.046879  Gnorm:      0.004922  CPU:    2.076
  Cycle:    256 Energy:        -0.046880  Gnorm:      0.006083  CPU:    2.084
  Cycle:    257 Energy:        -0.046880  Gnorm:      0.006581  CPU:    2.092
  Cycle:    258 Energy:        -0.046881  Gnorm:      0.008427  CPU:    2.100
  ** Hessian calculated **
  Cycle:    259 Energy:        -0.046882  Gnorm:      0.006428  CPU:    2.112
  Cycle:    260 Energy:        -0.046883  Gnorm:      0.005907  CPU:    2.116
  Cycle:    261 Energy:        -0.046883  Gnorm:      0.004711  CPU:    2.128
  Cycle:    262 Energy:        -0.046883  Gnorm:      0.005408  CPU:    2.132
  Cycle:    263 Energy:        -0.046884  Gnorm:      0.005662  CPU:    2.140
  Cycle:    264 Energy:        -0.046885  Gnorm:      0.005408  CPU:    2.148
  Cycle:    265 Energy:        -0.046885  Gnorm:      0.006257  CPU:    2.156
  Cycle:    266 Energy:        -0.046886  Gnorm:      0.007031  CPU:    2.164
  Cycle:    267 Energy:        -0.046887  Gnorm:      0.008010  CPU:    2.172
  Cycle:    268 Energy:        -0.046888  Gnorm:      0.010958  CPU:    2.180
  ** Hessian calculated **
  Cycle:    269 Energy:        -0.046889  Gnorm:      0.007839  CPU:    2.188
  Cycle:    270 Energy:        -0.046889  Gnorm:      0.007054  CPU:    2.196
  Cycle:    271 Energy:        -0.046890  Gnorm:      0.006081  CPU:    2.204
  Cycle:    272 Energy:        -0.046891  Gnorm:      0.005300  CPU:    2.212
  Cycle:    273 Energy:        -0.046891  Gnorm:      0.005447  CPU:    2.220
  Cycle:    274 Energy:        -0.046892  Gnorm:      0.005082  CPU:    2.228
  Cycle:    275 Energy:        -0.046892  Gnorm:      0.004768  CPU:    2.232
  Cycle:    276 Energy:        -0.046893  Gnorm:      0.005881  CPU:    2.240
  Cycle:    277 Energy:        -0.046893  Gnorm:      0.006341  CPU:    2.248
  Cycle:    278 Energy:        -0.046894  Gnorm:      0.008162  CPU:    2.256
  ** Hessian calculated **
  Cycle:    279 Energy:        -0.046895  Gnorm:      0.006268  CPU:    2.268
  Cycle:    280 Energy:        -0.046895  Gnorm:      0.005744  CPU:    2.276
  Cycle:    281 Energy:        -0.046896  Gnorm:      0.004615  CPU:    2.280
  Cycle:    282 Energy:        -0.046896  Gnorm:      0.005157  CPU:    2.288
  Cycle:    283 Energy:        -0.046897  Gnorm:      0.005480  CPU:    2.296
  Cycle:    284 Energy:        -0.046897  Gnorm:      0.005505  CPU:    2.304
  Cycle:    285 Energy:        -0.046898  Gnorm:      0.005994  CPU:    2.312
  Cycle:    286 Energy:        -0.046898  Gnorm:      0.006777  CPU:    2.320
  Cycle:    287 Energy:        -0.046899  Gnorm:      0.007811  CPU:    2.328
  Cycle:    288 Energy:        -0.046900  Gnorm:      0.010731  CPU:    2.336
  ** Hessian calculated **
  Cycle:    289 Energy:        -0.046901  Gnorm:      0.007648  CPU:    2.344
  Cycle:    290 Energy:        -0.046902  Gnorm:      0.006958  CPU:    2.352
  Cycle:    291 Energy:        -0.046902  Gnorm:      0.005860  CPU:    2.360
  Cycle:    292 Energy:        -0.046903  Gnorm:      0.005428  CPU:    2.368
  Cycle:    293 Energy:        -0.046903  Gnorm:      0.005282  CPU:    2.376
  Cycle:    294 Energy:        -0.046904  Gnorm:      0.004808  CPU:    2.384
  Cycle:    295 Energy:        -0.046904  Gnorm:      0.004565  CPU:    2.392
  Cycle:    296 Energy:        -0.046905  Gnorm:      0.005736  CPU:    2.400
  Cycle:    297 Energy:        -0.046905  Gnorm:      0.006184  CPU:    2.404
  Cycle:    298 Energy:        -0.046906  Gnorm:      0.008127  CPU:    2.412
  ** Hessian calculated **
  Cycle:    299 Energy:        -0.046907  Gnorm:      0.006094  CPU:    2.424
  Cycle:    300 Energy:        -0.046907  Gnorm:      0.005577  CPU:    2.432
  Cycle:    301 Energy:        -0.046908  Gnorm:      0.004529  CPU:    2.440
  Cycle:    302 Energy:        -0.046908  Gnorm:      0.004882  CPU:    2.444
  Cycle:    303 Energy:        -0.046908  Gnorm:      0.005293  CPU:    2.452
  Cycle:    304 Energy:        -0.046909  Gnorm:      0.005605  CPU:    2.460
  Cycle:    305 Energy:        -0.046909  Gnorm:      0.005794  CPU:    2.468
  Cycle:    306 Energy:        -0.046910  Gnorm:      0.006657  CPU:    2.476
  Cycle:    307 Energy:        -0.046911  Gnorm:      0.007603  CPU:    2.484
  Cycle:    308 Energy:        -0.046912  Gnorm:      0.010262  CPU:    2.492
  ** Hessian calculated **
  Cycle:    309 Energy:        -0.046913  Gnorm:      0.007452  CPU:    2.500
  Cycle:    310 Energy:        -0.046913  Gnorm:      0.006856  CPU:    2.508
  Cycle:    311 Energy:        -0.046914  Gnorm:      0.005652  CPU:    2.516
  Cycle:    312 Energy:        -0.046914  Gnorm:      0.005575  CPU:    2.524
  Cycle:    313 Energy:        -0.046915  Gnorm:      0.005106  CPU:    2.532
  Cycle:    314 Energy:        -0.046915  Gnorm:      0.004649  CPU:    2.540
  Cycle:    315 Energy:        -0.046916  Gnorm:      0.004401  CPU:    2.544
  Cycle:    316 Energy:        -0.046916  Gnorm:      0.005559  CPU:    2.556
  Cycle:    317 Energy:        -0.046917  Gnorm:      0.005950  CPU:    2.560
  Cycle:    318 Energy:        -0.046917  Gnorm:      0.008040  CPU:    2.568
  ** Hessian calculated **
  Cycle:    319 Energy:        -0.046918  Gnorm:      0.005928  CPU:    2.580
  Cycle:    320 Energy:        -0.046918  Gnorm:      0.005453  CPU:    2.588
  Cycle:    321 Energy:        -0.046919  Gnorm:      0.004444  CPU:    2.596
  Cycle:    322 Energy:        -0.046919  Gnorm:      0.004678  CPU:    2.604
  Cycle:    323 Energy:        -0.046920  Gnorm:      0.005113  CPU:    2.612
  Cycle:    324 Energy:        -0.046920  Gnorm:      0.005579  CPU:    2.616
  Cycle:    325 Energy:        -0.046921  Gnorm:      0.005670  CPU:    2.624
  Cycle:    326 Energy:        -0.046921  Gnorm:      0.006658  CPU:    2.632
  Cycle:    327 Energy:        -0.046922  Gnorm:      0.007367  CPU:    2.640
  Cycle:    328 Energy:        -0.046923  Gnorm:      0.009900  CPU:    2.648
  ** Hessian calculated **
  Cycle:    329 Energy:        -0.046924  Gnorm:      0.007264  CPU:    2.660
  Cycle:    330 Energy:        -0.046924  Gnorm:      0.006776  CPU:    2.664
  Cycle:    331 Energy:        -0.046925  Gnorm:      0.005539  CPU:    2.672
  Cycle:    332 Energy:        -0.046925  Gnorm:      0.005555  CPU:    2.680
  Cycle:    333 Energy:        -0.046926  Gnorm:      0.004960  CPU:    2.688
  Cycle:    334 Energy:        -0.046926  Gnorm:      0.004533  CPU:    2.696
  Cycle:    335 Energy:        -0.046927  Gnorm:      0.004316  CPU:    2.704
  Cycle:    336 Energy:        -0.046927  Gnorm:      0.005379  CPU:    2.712
  Cycle:    337 Energy:        -0.046927  Gnorm:      0.005757  CPU:    2.720
  Cycle:    338 Energy:        -0.046928  Gnorm:      0.007888  CPU:    2.724
  ** Hessian calculated **
  Cycle:    339 Energy:        -0.046929  Gnorm:      0.005780  CPU:    2.736
  Cycle:    340 Energy:        -0.046929  Gnorm:      0.005354  CPU:    2.744
  Cycle:    341 Energy:        -0.046930  Gnorm:      0.004365  CPU:    2.752
  Cycle:    342 Energy:        -0.046930  Gnorm:      0.004542  CPU:    2.760
  Cycle:    343 Energy:        -0.046930  Gnorm:      0.004971  CPU:    2.768
  Cycle:    344 Energy:        -0.046931  Gnorm:      0.005494  CPU:    2.776
  Cycle:    345 Energy:        -0.046931  Gnorm:      0.005562  CPU:    2.784
  Cycle:    346 Energy:        -0.046932  Gnorm:      0.006603  CPU:    2.792
  Cycle:    347 Energy:        -0.046933  Gnorm:      0.007162  CPU:    2.796
  Cycle:    348 Energy:        -0.046933  Gnorm:      0.009586  CPU:    2.804
  ** Hessian calculated **
  Cycle:    349 Energy:        -0.046934  Gnorm:      0.007092  CPU:    2.816
  Cycle:    350 Energy:        -0.046935  Gnorm:      0.006699  CPU:    2.824
  Cycle:    351 Energy:        -0.046935  Gnorm:      0.005450  CPU:    2.832
  Cycle:    352 Energy:        -0.046936  Gnorm:      0.005473  CPU:    2.840
  Cycle:    353 Energy:        -0.046936  Gnorm:      0.004837  CPU:    2.848
  Cycle:    354 Energy:        -0.046937  Gnorm:      0.004422  CPU:    2.852
  Cycle:    355 Energy:        -0.046937  Gnorm:      0.004236  CPU:    2.860
  Cycle:    356 Energy:        -0.046937  Gnorm:      0.005257  CPU:    2.868
  Cycle:    357 Energy:        -0.046938  Gnorm:      0.005601  CPU:    2.876
  Cycle:    358 Energy:        -0.046938  Gnorm:      0.007729  CPU:    2.884
  ** Hessian calculated **
  Cycle:    359 Energy:        -0.046939  Gnorm:      0.005639  CPU:    2.896
  Cycle:    360 Energy:        -0.046939  Gnorm:      0.005260  CPU:    2.904
  Cycle:    361 Energy:        -0.046940  Gnorm:      0.004292  CPU:    2.912
  Cycle:    362 Energy:        -0.046940  Gnorm:      0.004427  CPU:    2.920
  Cycle:    363 Energy:        -0.046941  Gnorm:      0.004852  CPU:    2.928
  Cycle:    364 Energy:        -0.046941  Gnorm:      0.005403  CPU:    2.936
  Cycle:    365 Energy:        -0.046941  Gnorm:      0.005463  CPU:    2.940
  Cycle:    366 Energy:        -0.046942  Gnorm:      0.006531  CPU:    2.948
  Cycle:    367 Energy:        -0.046943  Gnorm:      0.006976  CPU:    2.956
  Cycle:    368 Energy:        -0.046943  Gnorm:      0.009296  CPU:    2.964
  ** Hessian calculated **
  Cycle:    369 Energy:        -0.046944  Gnorm:      0.006928  CPU:    2.976
  Cycle:    370 Energy:        -0.046945  Gnorm:      0.006623  CPU:    2.984
  Cycle:    371 Energy:        -0.046945  Gnorm:      0.005364  CPU:    2.992
  Cycle:    372 Energy:        -0.046946  Gnorm:      0.005386  CPU:    3.000
  Cycle:    373 Energy:        -0.046946  Gnorm:      0.004729  CPU:    3.004
  Cycle:    374 Energy:        -0.046946  Gnorm:      0.004319  CPU:    3.012
  Cycle:    375 Energy:        -0.046947  Gnorm:      0.004161  CPU:    3.020
  Cycle:    376 Energy:        -0.046947  Gnorm:      0.005156  CPU:    3.028
  Cycle:    377 Energy:        -0.046948  Gnorm:      0.005459  CPU:    3.036
  Cycle:    378 Energy:        -0.046948  Gnorm:      0.007577  CPU:    3.044
  ** Hessian calculated **
  Cycle:    379 Energy:        -0.046949  Gnorm:      0.005504  CPU:    3.056
  Cycle:    380 Energy:        -0.046949  Gnorm:      0.005168  CPU:    3.064
  Cycle:    381 Energy:        -0.046949  Gnorm:      0.004220  CPU:    3.068
  Cycle:    382 Energy:        -0.046950  Gnorm:      0.004320  CPU:    3.076
  Cycle:    383 Energy:        -0.046950  Gnorm:      0.004748  CPU:    3.084
  Cycle:    384 Energy:        -0.046951  Gnorm:      0.005317  CPU:    3.092
  Cycle:    385 Energy:        -0.046951  Gnorm:      0.005370  CPU:    3.100
  Cycle:    386 Energy:        -0.046952  Gnorm:      0.006459  CPU:    3.108
  Cycle:    387 Energy:        -0.046952  Gnorm:      0.006802  CPU:    3.116
  Cycle:    388 Energy:        -0.046953  Gnorm:      0.009028  CPU:    3.124
  ** Hessian calculated **
  Cycle:    389 Energy:        -0.046954  Gnorm:      0.006771  CPU:    3.136
  Cycle:    390 Energy:        -0.046954  Gnorm:      0.006546  CPU:    3.144
  Cycle:    391 Energy:        -0.046955  Gnorm:      0.005280  CPU:    3.148
  Cycle:    392 Energy:        -0.046955  Gnorm:      0.005301  CPU:    3.156
  Cycle:    393 Energy:        -0.046956  Gnorm:      0.004633  CPU:    3.164
  Cycle:    394 Energy:        -0.046956  Gnorm:      0.004224  CPU:    3.172
  Cycle:    395 Energy:        -0.046956  Gnorm:      0.004091  CPU:    3.184
  Cycle:    396 Energy:        -0.046957  Gnorm:      0.005062  CPU:    3.192
  Cycle:    397 Energy:        -0.046957  Gnorm:      0.005326  CPU:    3.200
  Cycle:    398 Energy:        -0.046958  Gnorm:      0.007436  CPU:    3.204
  ** Hessian calculated **
  Cycle:    399 Energy:        -0.046958  Gnorm:      0.005377  CPU:    3.216
  Cycle:    400 Energy:        -0.046958  Gnorm:      0.005079  CPU:    3.224
  Cycle:    401 Energy:        -0.046959  Gnorm:      0.004150  CPU:    3.232
  Cycle:    402 Energy:        -0.046959  Gnorm:      0.004220  CPU:    3.240
  Cycle:    403 Energy:        -0.046959  Gnorm:      0.004654  CPU:    3.248
  Cycle:    404 Energy:        -0.046960  Gnorm:      0.005236  CPU:    3.256
  Cycle:    405 Energy:        -0.046960  Gnorm:      0.005281  CPU:    3.264
  Cycle:    406 Energy:        -0.046961  Gnorm:      0.006391  CPU:    3.272
  Cycle:    407 Energy:        -0.046961  Gnorm:      0.006638  CPU:    3.280
  Cycle:    408 Energy:        -0.046962  Gnorm:      0.008782  CPU:    3.284
  ** Hessian calculated **
  Cycle:    409 Energy:        -0.046963  Gnorm:      0.006622  CPU:    3.296
  Cycle:    410 Energy:        -0.046963  Gnorm:      0.006470  CPU:    3.304
  Cycle:    411 Energy:        -0.046964  Gnorm:      0.005197  CPU:    3.312
  Cycle:    412 Energy:        -0.046964  Gnorm:      0.005221  CPU:    3.320
  Cycle:    413 Energy:        -0.046965  Gnorm:      0.004545  CPU:    3.328
  Cycle:    414 Energy:        -0.046965  Gnorm:      0.004136  CPU:    3.332
  Cycle:    415 Energy:        -0.046965  Gnorm:      0.004025  CPU:    3.340
  Cycle:    416 Energy:        -0.046966  Gnorm:      0.004972  CPU:    3.348
  Cycle:    417 Energy:        -0.046966  Gnorm:      0.005201  CPU:    3.356
  Cycle:    418 Energy:        -0.046966  Gnorm:      0.007304  CPU:    3.364
  ** Hessian calculated **
  Cycle:    419 Energy:        -0.046967  Gnorm:      0.005257  CPU:    3.376
  Cycle:    420 Energy:        -0.046967  Gnorm:      0.004991  CPU:    3.380
  Cycle:    421 Energy:        -0.046968  Gnorm:      0.004081  CPU:    3.388
  Cycle:    422 Energy:        -0.046968  Gnorm:      0.004127  CPU:    3.396
  Cycle:    423 Energy:        -0.046968  Gnorm:      0.004569  CPU:    3.404
  Cycle:    424 Energy:        -0.046969  Gnorm:      0.005157  CPU:    3.412
  Cycle:    425 Energy:        -0.046969  Gnorm:      0.005194  CPU:    3.420
  Cycle:    426 Energy:        -0.046970  Gnorm:      0.006324  CPU:    3.428
  Cycle:    427 Energy:        -0.046970  Gnorm:      0.006484  CPU:    3.436
  Cycle:    428 Energy:        -0.046971  Gnorm:      0.008555  CPU:    3.444
  ** Hessian calculated **
  Cycle:    429 Energy:        -0.046971  Gnorm:      0.006480  CPU:    3.452
  Cycle:    430 Energy:        -0.046972  Gnorm:      0.006392  CPU:    3.460
  Cycle:    431 Energy:        -0.046973  Gnorm:      0.005115  CPU:    3.468
  Cycle:    432 Energy:        -0.046973  Gnorm:      0.005143  CPU:    3.476
  Cycle:    433 Energy:        -0.046973  Gnorm:      0.004464  CPU:    3.484
  Cycle:    434 Energy:        -0.046974  Gnorm:      0.004054  CPU:    3.492
  Cycle:    435 Energy:        -0.046974  Gnorm:      0.003961  CPU:    3.500
  Cycle:    436 Energy:        -0.046974  Gnorm:      0.004886  CPU:    3.504
  Cycle:    437 Energy:        -0.046975  Gnorm:      0.005083  CPU:    3.516
  Cycle:    438 Energy:        -0.046975  Gnorm:      0.007179  CPU:    3.520
  ** Hessian calculated **
  Cycle:    439 Energy:        -0.046976  Gnorm:      0.005144  CPU:    3.532
  Cycle:    440 Energy:        -0.046976  Gnorm:      0.004904  CPU:    3.540
  Cycle:    441 Energy:        -0.046976  Gnorm:      0.004014  CPU:    3.548
  Cycle:    442 Energy:        -0.046977  Gnorm:      0.004040  CPU:    3.556
  Cycle:    443 Energy:        -0.046977  Gnorm:      0.004490  CPU:    3.564
  Cycle:    444 Energy:        -0.046977  Gnorm:      0.005082  CPU:    3.572
  Cycle:    445 Energy:        -0.046978  Gnorm:      0.005110  CPU:    3.580
  Cycle:    446 Energy:        -0.046978  Gnorm:      0.006258  CPU:    3.588
  Cycle:    447 Energy:        -0.046979  Gnorm:      0.006340  CPU:    3.592
  Cycle:    448 Energy:        -0.046979  Gnorm:      0.008347  CPU:    3.600
  ** Hessian calculated **
  Cycle:    449 Energy:        -0.046980  Gnorm:      0.006346  CPU:    3.612
  Cycle:    450 Energy:        -0.046980  Gnorm:      0.006314  CPU:    3.620
  Cycle:    451 Energy:        -0.046981  Gnorm:      0.005035  CPU:    3.628
  Cycle:    452 Energy:        -0.046981  Gnorm:      0.005069  CPU:    3.636
  Cycle:    453 Energy:        -0.046982  Gnorm:      0.004389  CPU:    3.644
  Cycle:    454 Energy:        -0.046982  Gnorm:      0.003977  CPU:    3.652
  Cycle:    455 Energy:        -0.046982  Gnorm:      0.003898  CPU:    3.660
  Cycle:    456 Energy:        -0.046983  Gnorm:      0.004802  CPU:    3.664
  Cycle:    457 Energy:        -0.046983  Gnorm:      0.004974  CPU:    3.672
  Cycle:    458 Energy:        -0.046983  Gnorm:      0.007061  CPU:    3.680
  ** Hessian calculated **
  Cycle:    459 Energy:        -0.046984  Gnorm:      0.005038  CPU:    3.692
  Cycle:    460 Energy:        -0.046984  Gnorm:      0.004820  CPU:    3.700
  Cycle:    461 Energy:        -0.046984  Gnorm:      0.003948  CPU:    3.708
  Cycle:    462 Energy:        -0.046985  Gnorm:      0.003959  CPU:    3.716
  Cycle:    463 Energy:        -0.046985  Gnorm:      0.004415  CPU:    3.720
  Cycle:    464 Energy:        -0.046985  Gnorm:      0.005009  CPU:    3.728
  Cycle:    465 Energy:        -0.046986  Gnorm:      0.005029  CPU:    3.736
  Cycle:    466 Energy:        -0.046986  Gnorm:      0.006191  CPU:    3.744
  Cycle:    467 Energy:        -0.046987  Gnorm:      0.006205  CPU:    3.752
  Cycle:    468 Energy:        -0.046987  Gnorm:      0.008154  CPU:    3.760
  ** Hessian calculated **
  Cycle:    469 Energy:        -0.046988  Gnorm:      0.006219  CPU:    3.768
  Cycle:    470 Energy:        -0.046988  Gnorm:      0.006236  CPU:    3.780
  Cycle:    471 Energy:        -0.046989  Gnorm:      0.004957  CPU:    3.784
  Cycle:    472 Energy:        -0.046989  Gnorm:      0.004997  CPU:    3.792
  Cycle:    473 Energy:        -0.046990  Gnorm:      0.004317  CPU:    3.800
  Cycle:    474 Energy:        -0.046990  Gnorm:      0.003905  CPU:    3.808
  Cycle:    475 Energy:        -0.046990  Gnorm:      0.003838  CPU:    3.816
  Cycle:    476 Energy:        -0.046990  Gnorm:      0.004720  CPU:    3.824
  Cycle:    477 Energy:        -0.046991  Gnorm:      0.004871  CPU:    3.832
  Cycle:    478 Energy:        -0.046991  Gnorm:      0.006948  CPU:    3.840
  ** Hessian calculated **
  Cycle:    479 Energy:        -0.046992  Gnorm:      0.004939  CPU:    3.848
  Cycle:    480 Energy:        -0.046992  Gnorm:      0.004738  CPU:    3.856
  Cycle:    481 Energy:        -0.046992  Gnorm:      0.003884  CPU:    3.864
  Cycle:    482 Energy:        -0.046993  Gnorm:      0.003883  CPU:    3.872
  Cycle:    483 Energy:        -0.046993  Gnorm:      0.004344  CPU:    3.880
  Cycle:    484 Energy:        -0.046993  Gnorm:      0.004938  CPU:    3.888
  Cycle:    485 Energy:        -0.046994  Gnorm:      0.004950  CPU:    3.892
  Cycle:    486 Energy:        -0.046994  Gnorm:      0.006124  CPU:    3.900
  Cycle:    487 Energy:        -0.046995  Gnorm:      0.006078  CPU:    3.908
  Cycle:    488 Energy:        -0.046995  Gnorm:      0.007976  CPU:    3.916
  ** Hessian calculated **
  Cycle:    489 Energy:        -0.046996  Gnorm:      0.006099  CPU:    3.928
  Cycle:    490 Energy:        -0.046996  Gnorm:      0.006157  CPU:    3.936
  Cycle:    491 Energy:        -0.046997  Gnorm:      0.004881  CPU:    3.944
  Cycle:    492 Energy:        -0.046997  Gnorm:      0.004928  CPU:    3.952
  Cycle:    493 Energy:        -0.046997  Gnorm:      0.004250  CPU:    3.960
  Cycle:    494 Energy:        -0.046998  Gnorm:      0.003837  CPU:    3.972
  Cycle:    495 Energy:        -0.046998  Gnorm:      0.003779  CPU:    3.984
  Cycle:    496 Energy:        -0.046998  Gnorm:      0.004641  CPU:    3.992
  Cycle:    497 Energy:        -0.046999  Gnorm:      0.004776  CPU:    4.000
  Cycle:    498 Energy:        -0.046999  Gnorm:      0.006840  CPU:    4.008
  ** Hessian calculated **
  Cycle:    499 Energy:        -0.046999  Gnorm:      0.004846  CPU:    4.020
  Cycle:    500 Energy:        -0.047000  Gnorm:      0.004658  CPU:    4.028
  Cycle:    501 Energy:        -0.047000  Gnorm:      0.003821  CPU:    4.036
  Cycle:    502 Energy:        -0.047000  Gnorm:      0.003811  CPU:    4.044
  Cycle:    503 Energy:        -0.047001  Gnorm:      0.004277  CPU:    4.052
  Cycle:    504 Energy:        -0.047001  Gnorm:      0.004870  CPU:    4.060
  Cycle:    505 Energy:        -0.047001  Gnorm:      0.004873  CPU:    4.068
  Cycle:    506 Energy:        -0.047002  Gnorm:      0.006056  CPU:    4.076
  Cycle:    507 Energy:        -0.047002  Gnorm:      0.005959  CPU:    4.084
  Cycle:    508 Energy:        -0.047003  Gnorm:      0.007811  CPU:    4.092
  ** Hessian calculated **
  Cycle:    509 Energy:        -0.047003  Gnorm:      0.005985  CPU:    4.104
  Cycle:    510 Energy:        -0.047004  Gnorm:      0.006078  CPU:    4.112
  Cycle:    511 Energy:        -0.047004  Gnorm:      0.004808  CPU:    4.120
  Cycle:    512 Energy:        -0.047004  Gnorm:      0.004862  CPU:    4.132
  Cycle:    513 Energy:        -0.047005  Gnorm:      0.004185  CPU:    4.140
  Cycle:    514 Energy:        -0.047005  Gnorm:      0.003773  CPU:    4.148
  Cycle:    515 Energy:        -0.047005  Gnorm:      0.003722  CPU:    4.156
  Cycle:    516 Energy:        -0.047006  Gnorm:      0.004565  CPU:    4.164
  Cycle:    517 Energy:        -0.047006  Gnorm:      0.004686  CPU:    4.172
  Cycle:    518 Energy:        -0.047006  Gnorm:      0.006737  CPU:    4.180
  ** Hessian calculated **
  Cycle:    519 Energy:        -0.047007  Gnorm:      0.004758  CPU:    4.192
  Cycle:    520 Energy:        -0.047007  Gnorm:      0.004581  CPU:    4.200
  Cycle:    521 Energy:        -0.047007  Gnorm:      0.003761  CPU:    4.208
  Cycle:    522 Energy:        -0.047008  Gnorm:      0.003745  CPU:    4.216
  Cycle:    523 Energy:        -0.047008  Gnorm:      0.004212  CPU:    4.224
  Cycle:    524 Energy:        -0.047008  Gnorm:      0.004805  CPU:    4.232
  Cycle:    525 Energy:        -0.047008  Gnorm:      0.004800  CPU:    4.240
  Cycle:    526 Energy:        -0.047009  Gnorm:      0.005987  CPU:    4.248
  Cycle:    527 Energy:        -0.047009  Gnorm:      0.005848  CPU:    4.252
  Cycle:    528 Energy:        -0.047010  Gnorm:      0.007657  CPU:    4.260
  ** Hessian calculated **
  Cycle:    529 Energy:        -0.047010  Gnorm:      0.005878  CPU:    4.272
  Cycle:    530 Energy:        -0.047011  Gnorm:      0.006001  CPU:    4.280
  Cycle:    531 Energy:        -0.047011  Gnorm:      0.004738  CPU:    4.288
  Cycle:    532 Energy:        -0.047012  Gnorm:      0.004798  CPU:    4.296
  Cycle:    533 Energy:        -0.047012  Gnorm:      0.004122  CPU:    4.304
  Cycle:    534 Energy:        -0.047012  Gnorm:      0.003713  CPU:    4.312
  Cycle:    535 Energy:        -0.047012  Gnorm:      0.003667  CPU:    4.316
  Cycle:    536 Energy:        -0.047013  Gnorm:      0.004491  CPU:    4.324
  Cycle:    537 Energy:        -0.047013  Gnorm:      0.004602  CPU:    4.332
  Cycle:    538 Energy:        -0.047013  Gnorm:      0.006637  CPU:    4.340
  ** Hessian calculated **
  Cycle:    539 Energy:        -0.047014  Gnorm:      0.004677  CPU:    4.352
  Cycle:    540 Energy:        -0.047014  Gnorm:      0.004507  CPU:    4.360
  Cycle:    541 Energy:        -0.047014  Gnorm:      0.003702  CPU:    4.368
  Cycle:    542 Energy:        -0.047015  Gnorm:      0.003682  CPU:    4.376
  Cycle:    543 Energy:        -0.047015  Gnorm:      0.004150  CPU:    4.384
  Cycle:    544 Energy:        -0.047015  Gnorm:      0.004742  CPU:    4.388
  Cycle:    545 Energy:        -0.047016  Gnorm:      0.004730  CPU:    4.396
  Cycle:    546 Energy:        -0.047016  Gnorm:      0.005918  CPU:    4.404
  Cycle:    547 Energy:        -0.047016  Gnorm:      0.005743  CPU:    4.412
  Cycle:    548 Energy:        -0.047017  Gnorm:      0.007513  CPU:    4.420
  ** Hessian calculated **
  Cycle:    549 Energy:        -0.047017  Gnorm:      0.005777  CPU:    4.432
  Cycle:    550 Energy:        -0.047018  Gnorm:      0.005925  CPU:    4.436
  Cycle:    551 Energy:        -0.047018  Gnorm:      0.004671  CPU:    4.444
  Cycle:    552 Energy:        -0.047019  Gnorm:      0.004737  CPU:    4.452
  Cycle:    553 Energy:        -0.047019  Gnorm:      0.004062  CPU:    4.460
  Cycle:    554 Energy:        -0.047019  Gnorm:      0.003656  CPU:    4.468
  Cycle:    555 Energy:        -0.047019  Gnorm:      0.003614  CPU:    4.476
  Cycle:    556 Energy:        -0.047020  Gnorm:      0.004421  CPU:    4.484
  Cycle:    557 Energy:        -0.047020  Gnorm:      0.004524  CPU:    4.488
  Cycle:    558 Energy:        -0.047020  Gnorm:      0.006542  CPU:    4.496
  ** Hessian calculated **
  Cycle:    559 Energy:        -0.047021  Gnorm:      0.004600  CPU:    4.508
  Cycle:    560 Energy:        -0.047021  Gnorm:      0.004436  CPU:    4.516
  Cycle:    561 Energy:        -0.047021  Gnorm:      0.003646  CPU:    4.524
  Cycle:    562 Energy:        -0.047022  Gnorm:      0.003624  CPU:    4.532
  Cycle:    563 Energy:        -0.047022  Gnorm:      0.004090  CPU:    4.540
  Cycle:    564 Energy:        -0.047022  Gnorm:      0.004681  CPU:    4.548
  Cycle:    565 Energy:        -0.047022  Gnorm:      0.004664  CPU:    4.556
  Cycle:    566 Energy:        -0.047023  Gnorm:      0.005849  CPU:    4.564
  Cycle:    567 Energy:        -0.047023  Gnorm:      0.005644  CPU:    4.572
  Cycle:    568 Energy:        -0.047024  Gnorm:      0.007379  CPU:    4.576
  ** Hessian calculated **
  Cycle:    569 Energy:        -0.047024  Gnorm:      0.005681  CPU:    4.588
  Cycle:    570 Energy:        -0.047025  Gnorm:      0.005850  CPU:    4.596
  Cycle:    571 Energy:        -0.047025  Gnorm:      0.004607  CPU:    4.604
  Cycle:    572 Energy:        -0.047025  Gnorm:      0.004679  CPU:    4.612
  Cycle:    573 Energy:        -0.047026  Gnorm:      0.004005  CPU:    4.616
  Cycle:    574 Energy:        -0.047026  Gnorm:      0.003602  CPU:    4.628
  Cycle:    575 Energy:        -0.047026  Gnorm:      0.003564  CPU:    4.632
  Cycle:    576 Energy:        -0.047026  Gnorm:      0.004353  CPU:    4.644
  Cycle:    577 Energy:        -0.047027  Gnorm:      0.004450  CPU:    4.648
  Cycle:    578 Energy:        -0.047027  Gnorm:      0.006450  CPU:    4.656
  ** Hessian calculated **
  Cycle:    579 Energy:        -0.047027  Gnorm:      0.004528  CPU:    4.668
  Cycle:    580 Energy:        -0.047028  Gnorm:      0.004368  CPU:    4.676
  Cycle:    581 Energy:        -0.047028  Gnorm:      0.003593  CPU:    4.684
  Cycle:    582 Energy:        -0.047028  Gnorm:      0.003569  CPU:    4.692
  Cycle:    583 Energy:        -0.047028  Gnorm:      0.004033  CPU:    4.700
  Cycle:    584 Energy:        -0.047029  Gnorm:      0.004623  CPU:    4.704
  Cycle:    585 Energy:        -0.047029  Gnorm:      0.004600  CPU:    4.712
  Cycle:    586 Energy:        -0.047029  Gnorm:      0.005781  CPU:    4.720
  Cycle:    587 Energy:        -0.047030  Gnorm:      0.005551  CPU:    4.728
  Cycle:    588 Energy:        -0.047030  Gnorm:      0.007253  CPU:    4.736
  ** Hessian calculated **
  Cycle:    589 Energy:        -0.047031  Gnorm:      0.005591  CPU:    4.744
  Cycle:    590 Energy:        -0.047031  Gnorm:      0.005777  CPU:    4.752
  Cycle:    591 Energy:        -0.047032  Gnorm:      0.004546  CPU:    4.760
  Cycle:    592 Energy:        -0.047032  Gnorm:      0.004623  CPU:    4.768
  Cycle:    593 Energy:        -0.047032  Gnorm:      0.003949  CPU:    4.776
  Cycle:    594 Energy:        -0.047032  Gnorm:      0.003551  CPU:    4.784
  Cycle:    595 Energy:        -0.047033  Gnorm:      0.003516  CPU:    4.792
  Cycle:    596 Energy:        -0.047033  Gnorm:      0.004288  CPU:    4.800
  Cycle:    597 Energy:        -0.047033  Gnorm:      0.004381  CPU:    4.804
  Cycle:    598 Energy:        -0.047034  Gnorm:      0.006363  CPU:    4.812
  ** Hessian calculated **
  Cycle:    599 Energy:        -0.047034  Gnorm:      0.004461  CPU:    4.824
  Cycle:    600 Energy:        -0.047034  Gnorm:      0.004304  CPU:    4.832
  Cycle:    601 Energy:        -0.047034  Gnorm:      0.003541  CPU:    4.840
  Cycle:    602 Energy:        -0.047035  Gnorm:      0.003517  CPU:    4.848
  Cycle:    603 Energy:        -0.047035  Gnorm:      0.003978  CPU:    4.852
  Cycle:    604 Energy:        -0.047035  Gnorm:      0.004568  CPU:    4.864
  Cycle:    605 Energy:        -0.047035  Gnorm:      0.004540  CPU:    4.868
  Cycle:    606 Energy:        -0.047036  Gnorm:      0.005714  CPU:    4.876
  Cycle:    607 Energy:        -0.047036  Gnorm:      0.005462  CPU:    4.884
  Cycle:    608 Energy:        -0.047037  Gnorm:      0.007135  CPU:    4.892
  ** Hessian calculated **
  Cycle:    609 Energy:        -0.047037  Gnorm:      0.005505  CPU:    4.904
  Cycle:    610 Energy:        -0.047038  Gnorm:      0.005706  CPU:    4.912
  Cycle:    611 Energy:        -0.047038  Gnorm:      0.004488  CPU:    4.916
  Cycle:    612 Energy:        -0.047038  Gnorm:      0.004569  CPU:    4.924
  Cycle:    613 Energy:        -0.047039  Gnorm:      0.003896  CPU:    4.932
  Cycle:    614 Energy:        -0.047039  Gnorm:      0.003503  CPU:    4.940
  Cycle:    615 Energy:        -0.047039  Gnorm:      0.003470  CPU:    4.948
  Cycle:    616 Energy:        -0.047039  Gnorm:      0.004226  CPU:    4.956
  Cycle:    617 Energy:        -0.047040  Gnorm:      0.004316  CPU:    4.964
  Cycle:    618 Energy:        -0.047040  Gnorm:      0.006280  CPU:    4.972
  ** Hessian calculated **
  Cycle:    619 Energy:        -0.047040  Gnorm:      0.004397  CPU:    4.980
  Cycle:    620 Energy:        -0.047041  Gnorm:      0.004242  CPU:    4.988
  Cycle:    621 Energy:        -0.047041  Gnorm:      0.003493  CPU:    4.996
  Cycle:    622 Energy:        -0.047041  Gnorm:      0.003468  CPU:    5.004
  Cycle:    623 Energy:        -0.047041  Gnorm:      0.003925  CPU:    5.012
  Cycle:    624 Energy:        -0.047041  Gnorm:      0.004514  CPU:    5.016
  Cycle:    625 Energy:        -0.047042  Gnorm:      0.004482  CPU:    5.024
  Cycle:    626 Energy:        -0.047042  Gnorm:      0.005648  CPU:    5.032
  Cycle:    627 Energy:        -0.047043  Gnorm:      0.005379  CPU:    5.040
  Cycle:    628 Energy:        -0.047043  Gnorm:      0.007024  CPU:    5.048
  ** Hessian calculated **
  Cycle:    629 Energy:        -0.047043  Gnorm:      0.005425  CPU:    5.060
  Cycle:    630 Energy:        -0.047044  Gnorm:      0.005638  CPU:    5.068
  Cycle:    631 Energy:        -0.047044  Gnorm:      0.004433  CPU:    5.072
  Cycle:    632 Energy:        -0.047044  Gnorm:      0.004519  CPU:    5.080
  Cycle:    633 Energy:        -0.047045  Gnorm:      0.003845  CPU:    5.088
  Cycle:    634 Energy:        -0.047045  Gnorm:      0.003458  CPU:    5.096
  Cycle:    635 Energy:        -0.047045  Gnorm:      0.003427  CPU:    5.104
  Cycle:    636 Energy:        -0.047045  Gnorm:      0.004167  CPU:    5.112
  Cycle:    637 Energy:        -0.047046  Gnorm:      0.004254  CPU:    5.120
  Cycle:    638 Energy:        -0.047046  Gnorm:      0.006201  CPU:    5.128
  ** Hessian calculated **
  Cycle:    639 Energy:        -0.047046  Gnorm:      0.004338  CPU:    5.136
  Cycle:    640 Energy:        -0.047047  Gnorm:      0.004184  CPU:    5.144
  Cycle:    641 Energy:        -0.047047  Gnorm:      0.003447  CPU:    5.152
  Cycle:    642 Energy:        -0.047047  Gnorm:      0.003423  CPU:    5.164
  Cycle:    643 Energy:        -0.047047  Gnorm:      0.003875  CPU:    5.172
  Cycle:    644 Energy:        -0.047048  Gnorm:      0.004463  CPU:    5.176
  Cycle:    645 Energy:        -0.047048  Gnorm:      0.004428  CPU:    5.184
  Cycle:    646 Energy:        -0.047048  Gnorm:      0.005585  CPU:    5.192
  Cycle:    647 Energy:        -0.047049  Gnorm:      0.005300  CPU:    5.200
  Cycle:    648 Energy:        -0.047049  Gnorm:      0.006921  CPU:    5.208
  ** Hessian calculated **
  Cycle:    649 Energy:        -0.047049  Gnorm:      0.005348  CPU:    5.220
  Cycle:    650 Energy:        -0.047050  Gnorm:      0.005572  CPU:    5.224
  Cycle:    651 Energy:        -0.047050  Gnorm:      0.004381  CPU:    5.232
  Cycle:    652 Energy:        -0.047050  Gnorm:      0.004470  CPU:    5.240
  Cycle:    653 Energy:        -0.047051  Gnorm:      0.003797  CPU:    5.248
  Cycle:    654 Energy:        -0.047051  Gnorm:      0.003415  CPU:    5.256
  Cycle:    655 Energy:        -0.047051  Gnorm:      0.003387  CPU:    5.264
  Cycle:    656 Energy:        -0.047051  Gnorm:      0.004111  CPU:    5.272
  Cycle:    657 Energy:        -0.047052  Gnorm:      0.004197  CPU:    5.276
  Cycle:    658 Energy:        -0.047052  Gnorm:      0.006127  CPU:    5.284
  ** Hessian calculated **
  Cycle:    659 Energy:        -0.047052  Gnorm:      0.004282  CPU:    5.296
  Cycle:    660 Energy:        -0.047053  Gnorm:      0.004128  CPU:    5.304
  Cycle:    661 Energy:        -0.047053  Gnorm:      0.003404  CPU:    5.312
  Cycle:    662 Energy:        -0.047053  Gnorm:      0.003380  CPU:    5.316
  Cycle:    663 Energy:        -0.047053  Gnorm:      0.003827  CPU:    5.324
  Cycle:    664 Energy:        -0.047053  Gnorm:      0.004414  CPU:    5.332
  Cycle:    665 Energy:        -0.047054  Gnorm:      0.004377  CPU:    5.340
  Cycle:    666 Energy:        -0.047054  Gnorm:      0.005524  CPU:    5.348
  Cycle:    667 Energy:        -0.047054  Gnorm:      0.005225  CPU:    5.356
  Cycle:    668 Energy:        -0.047055  Gnorm:      0.006824  CPU:    5.364
  ** Hessian calculated **
  Cycle:    669 Energy:        -0.047055  Gnorm:      0.005276  CPU:    5.372
  Cycle:    670 Energy:        -0.047056  Gnorm:      0.005509  CPU:    5.380
  Cycle:    671 Energy:        -0.047056  Gnorm:      0.004333  CPU:    5.388
  Cycle:    672 Energy:        -0.047056  Gnorm:      0.004424  CPU:    5.396
  Cycle:    673 Energy:        -0.047057  Gnorm:      0.003750  CPU:    5.404
  Cycle:    674 Energy:        -0.047057  Gnorm:      0.003375  CPU:    5.412
  Cycle:    675 Energy:        -0.047057  Gnorm:      0.003349  CPU:    5.420
  Cycle:    676 Energy:        -0.047057  Gnorm:      0.004058  CPU:    5.428
  Cycle:    677 Energy:        -0.047057  Gnorm:      0.004143  CPU:    5.432
  Cycle:    678 Energy:        -0.047058  Gnorm:      0.006056  CPU:    5.440
  ** Hessian calculated **
  Cycle:    679 Energy:        -0.047058  Gnorm:      0.004230  CPU:    5.452
  Cycle:    680 Energy:        -0.047058  Gnorm:      0.004076  CPU:    5.460
  Cycle:    681 Energy:        -0.047059  Gnorm:      0.003363  CPU:    5.468
  Cycle:    682 Energy:        -0.047059  Gnorm:      0.003340  CPU:    5.476
  Cycle:    683 Energy:        -0.047059  Gnorm:      0.003782  CPU:    5.480
  Cycle:    684 Energy:        -0.047059  Gnorm:      0.004368  CPU:    5.488
  Cycle:    685 Energy:        -0.047060  Gnorm:      0.004329  CPU:    5.496
  Cycle:    686 Energy:        -0.047060  Gnorm:      0.005465  CPU:    5.504
  Cycle:    687 Energy:        -0.047060  Gnorm:      0.005154  CPU:    5.512
  Cycle:    688 Energy:        -0.047061  Gnorm:      0.006733  CPU:    5.520
  ** Hessian calculated **
  Cycle:    689 Energy:        -0.047061  Gnorm:      0.005207  CPU:    5.532
  Cycle:    690 Energy:        -0.047061  Gnorm:      0.005449  CPU:    5.536
  Cycle:    691 Energy:        -0.047062  Gnorm:      0.004286  CPU:    5.544
  Cycle:    692 Energy:        -0.047062  Gnorm:      0.004381  CPU:    5.552
  Cycle:    693 Energy:        -0.047062  Gnorm:      0.003706  CPU:    5.560
  Cycle:    694 Energy:        -0.047062  Gnorm:      0.003337  CPU:    5.568
  Cycle:    695 Energy:        -0.047063  Gnorm:      0.003313  CPU:    5.576
  Cycle:    696 Energy:        -0.047063  Gnorm:      0.004007  CPU:    5.584
  Cycle:    697 Energy:        -0.047063  Gnorm:      0.004092  CPU:    5.592
  Cycle:    698 Energy:        -0.047063  Gnorm:      0.005989  CPU:    5.600
  ** Hessian calculated **
  Cycle:    699 Energy:        -0.047064  Gnorm:      0.004181  CPU:    5.608
  Cycle:    700 Energy:        -0.047064  Gnorm:      0.004026  CPU:    5.616
  Cycle:    701 Energy:        -0.047064  Gnorm:      0.003325  CPU:    5.624
  Cycle:    702 Energy:        -0.047064  Gnorm:      0.003302  CPU:    5.632
  Cycle:    703 Energy:        -0.047065  Gnorm:      0.003738  CPU:    5.640
  Cycle:    704 Energy:        -0.047065  Gnorm:      0.004323  CPU:    5.648
  Cycle:    705 Energy:        -0.047065  Gnorm:      0.004283  CPU:    5.656
  Cycle:    706 Energy:        -0.047066  Gnorm:      0.005408  CPU:    5.660
  Cycle:    707 Energy:        -0.047066  Gnorm:      0.005087  CPU:    5.668
  Cycle:    708 Energy:        -0.047066  Gnorm:      0.006648  CPU:    5.676
  ** Hessian calculated **
  Cycle:    709 Energy:        -0.047067  Gnorm:      0.005143  CPU:    5.688
  Cycle:    710 Energy:        -0.047067  Gnorm:      0.005390  CPU:    5.696
  Cycle:    711 Energy:        -0.047067  Gnorm:      0.004243  CPU:    5.704
  Cycle:    712 Energy:        -0.047068  Gnorm:      0.004340  CPU:    5.708
  Cycle:    713 Energy:        -0.047068  Gnorm:      0.003663  CPU:    5.716
  Cycle:    714 Energy:        -0.047068  Gnorm:      0.003302  CPU:    5.724
  Cycle:    715 Energy:        -0.047068  Gnorm:      0.003281  CPU:    5.732
  Cycle:    716 Energy:        -0.047068  Gnorm:      0.003959  CPU:    5.740
  Cycle:    717 Energy:        -0.047069  Gnorm:      0.004045  CPU:    5.748
  Cycle:    718 Energy:        -0.047069  Gnorm:      0.005927  CPU:    5.756
  ** Hessian calculated **
  Cycle:    719 Energy:        -0.047069  Gnorm:      0.004135  CPU:    5.764
  Cycle:    720 Energy:        -0.047070  Gnorm:      0.003979  CPU:    5.772
  Cycle:    721 Energy:        -0.047070  Gnorm:      0.003289  CPU:    5.780
  Cycle:    722 Energy:        -0.047070  Gnorm:      0.003267  CPU:    5.788
  Cycle:    723 Energy:        -0.047070  Gnorm:      0.003697  CPU:    5.796
  Cycle:    724 Energy:        -0.047070  Gnorm:      0.004280  CPU:    5.804
  Cycle:    725 Energy:        -0.047071  Gnorm:      0.004240  CPU:    5.812
  Cycle:    726 Energy:        -0.047071  Gnorm:      0.005355  CPU:    5.820
  Cycle:    727 Energy:        -0.047071  Gnorm:      0.005024  CPU:    5.824
  Cycle:    728 Energy:        -0.047072  Gnorm:      0.006568  CPU:    5.832
  ** Hessian calculated **
  Cycle:    729 Energy:        -0.047072  Gnorm:      0.005082  CPU:    5.844
[...]
  23 H2    x       0.0600      0.0000      0.0000
           y       0.0000      0.0600      0.0000
           z       0.0000      0.0000      0.0600
-------------------------------------------------------------------------------
  24 H2    x       0.0600      0.0000      0.0000
           y       0.0000      0.0600      0.0000
           z       0.0000      0.0000      0.0600
-------------------------------------------------------------------------------
  25 H2    x       0.0600      0.0000      0.0000
           y       0.0000      0.0600      0.0000
           z       0.0000      0.0000      0.0600
-------------------------------------------------------------------------------
  26 H2    x       0.0600      0.0000      0.0000
           y       0.0000      0.0600      0.0000
           z       0.0000      0.0000      0.0600
-------------------------------------------------------------------------------
  27 H2    x       0.0600      0.0000      0.0000
           y       0.0000      0.0600      0.0000
           z       0.0000      0.0000      0.0600
-------------------------------------------------------------------------------
  28 H2    x       0.0600      0.0000      0.0000
           y       0.0000      0.0600      0.0000
           z       0.0000      0.0000      0.0600
-------------------------------------------------------------------------------




  Elastic Constant Matrix: (Units=GPa)

-------------------------------------------------------------------------------
  Indices      1         2         3         4         5         6    
-------------------------------------------------------------------------------
       1      0.0000   -0.0000   -0.0000    0.0000    0.0000   -0.0000
       2     -0.0000    0.0001   -0.0000   -0.0000   -0.0000   -0.0000
       3     -0.0000   -0.0000    0.0000   -0.0000    0.0000   -0.0000
       4      0.0000   -0.0000   -0.0000    0.0000   -0.0000   -0.0000
       5      0.0000   -0.0000    0.0000   -0.0000    0.0000   -0.0000
       6     -0.0000   -0.0000   -0.0000   -0.0000   -0.0000   -0.0000
-------------------------------------------------------------------------------


  Elastic Compliance Matrix: (Units=1/GPa)

-------------------------------------------------------------------------------
  Indices      1         2         3         4         5         6    
-------------------------------------------------------------------------------
       1  ************************************************************
       2  ************************************************************
       3  ************************************************************
       4  ************************************************************
       5  ************************************************************
       6  ************************************************************
-------------------------------------------------------------------------------

  Mechanical properties :

-------------------------------------------------------------------------------
  Convention :                    Reuss         Voigt         Hill
-------------------------------------------------------------------------------
  Bulk  Modulus (GPa)     =      -0.00000       0.00000      -0.00000
  Shear Modulus (GPa)     =      -0.00000       0.00002       0.00001
-------------------------------------------------------------------------------
  Velocity S-wave (km/s)  =      -0.10201       0.23456       0.14935
  Velocity P-wave (km/s)  =       0.12429       0.27214       0.17119
-------------------------------------------------------------------------------
  Compressibility (1/GPa) = *************
-------------------------------------------------------------------------------
  Stress axis :                     x             y             z
-------------------------------------------------------------------------------
  Youngs Moduli (GPa)     =      -0.00001      -0.00010      -0.00000
-------------------------------------------------------------------------------
  Poissons Ratio (x)      =                    -5.51671      -0.49991
  Poissons Ratio (y)      =      -0.38213                    -0.17388
  Poissons Ratio (z)      =      -2.58330     -12.97186
-------------------------------------------------------------------------------


  Piezoelectric Strain Matrix: (Units=C/m**2)

-------------------------------------------------------------------------------
  Indices      1         2         3         4         5         6    
-------------------------------------------------------------------------------
       x    -0.00075   0.00002   0.00048   0.00020  -0.00053   0.00022
       y    -0.00024   0.00012   0.00015   0.00006  -0.00017   0.00003
       z    -0.00004  -0.00004   0.00004   0.00008  -0.00009   0.00002
-------------------------------------------------------------------------------


  Piezoelectric Stress Matrix: (Units=10**-11 C/N)

-------------------------------------------------------------------------------
  Indices      1         2         3         4         5         6    
-------------------------------------------------------------------------------
       x  ************************************************************
       y  ******************************3866.29744**********5650.06731
       z  ******************************2174.725329657.992022654.17845
-------------------------------------------------------------------------------


  Static dielectric constant tensor : 

-------------------------------------------------------------------------------
              x         y         z
-------------------------------------------------------------------------------
       x     1.05834   0.02571   0.00643
       y     0.02571   1.01893  -0.00519
       z     0.00643  -0.00519   1.02293
--------------------------------------------------------------------------------

  Static refractive indices : 

-------------------------------------------------------------------------------
    1 =    1.00167      2 =    1.01270      3 =    1.03503
-------------------------------------------------------------------------------


  Phonon Calculation : 

  Number of k points for this configuration =        1

--------------------------------------------------------------------------------
  K point      1 =   0.000000  0.000000  0.000000  Weight =    1.000
--------------------------------------------------------------------------------

 Frequencies (cm-1) : 

   -0.00    0.00    0.00    0.10    0.69    1.69    2.66    4.51   10.92
   30.34   42.80   99.62  114.41  125.30  180.17  192.78  209.14  238.55
  251.57  277.52  289.35  342.32  362.95  428.91  460.68  486.73  504.65
  546.48  643.70  679.57  720.24  740.41  818.47  822.89  861.08  863.24
  875.99  885.09  908.81  923.56  927.67  936.76  977.59  994.17  997.88
 1011.47 1029.44 1040.13 1067.24 1076.52 1131.59 1171.68 1206.39 1265.79
 1265.98 1284.34 1295.51 1308.16 1317.93 1325.97 1356.18 1363.74 1421.24
 1446.48 1458.01 1542.72 1561.79 1637.97 1676.16 1702.29 2868.62 2907.54
 2911.17 2914.34 2971.46 2974.35 2976.76 2977.04 2977.84 3061.01 3061.73
 3062.22 3062.72 3063.36



  Thermal conductivity: 

  Lorentzian broadening factor =     7.3816 cm-1

--------------------------------------------------------------------------------
 Mode    : Frequency (cm-1)         Thermal conductivity (cm**2/s)              
--------------------------------------------------------------------------------
     4        0.1000                  8.32454046353177
     5        0.6883                  0.00241263325603
     6        1.6884                  0.00905487008378
     7        2.6567                  0.02174875155221
     8        4.5090                  0.02207184718350
     9       10.9209                  1.19787795705995
    10       30.3388                  0.00000029746526
    11       42.7962                  0.00000014949345
    12       99.6217                  0.00000000000000
    13      114.4053                  0.00002807536521
    14      125.2967                  0.00002340658829
    15      180.1732                  0.00004313977860
    16      192.7825                  0.00003768102344
    17      209.1434                  0.00000000000000
    18      238.5461                  0.00002318534675
    19      251.5692                  0.00002084698230
    20      277.5180                  0.00000000264122
    21      289.3515                  0.00000000242961
    22      342.3158                  0.00000000000000
    23      362.9461                  0.00000000000000
    24      428.9135                  0.00000000000000
    25      460.6771                  0.00000000000000
    26      486.7288                  0.00000000000000
    27      504.6520                  0.00000000000000
    28      546.4818                  0.00000000000000
    29      643.7034                  0.00000000000000
    30      679.5710                  0.00000000000000
    31      720.2382                  0.00000000000000
    32      740.4104                  0.00000000000000
    33      818.4720                  0.00000000817269
    34      822.8942                  0.00000000808509
    35      861.0790                  0.00001485329843
    36      863.2431                  0.00003966903147
    37      875.9887                  0.00002551516781
    38      885.0854                  0.00000131659999
    39      908.8133                  0.00000000000000
    40      923.5573                  0.00001031487522
    41      927.6689                  0.00007307455850
    42      936.7617                  0.00006222998982
    43      977.5916                  0.00000000000000
    44      994.1731                  0.00000118309250
    45      997.8807                  0.00000117431724
    46     1011.4651                  0.00000000000000
    47     1029.4421                  0.00003328190098
    48     1040.1346                  0.00003260115149
    49     1067.2418                  0.00000001106316
    50     1076.5209                  0.00000001087327
    51     1131.5866                  0.00000000000000
    52     1171.6789                  0.00000000000000
    53     1206.3946                  0.00000000000000
    54     1265.7906                  0.00000000245701
    55     1265.9769                  0.00000000245629
    56     1284.3413                  0.00001776156030
    57     1295.5084                  0.00001786146438
    58     1308.1578                  0.00000076174528
    59     1317.9259                  0.00000128736284
    60     1325.9734                  0.00000091677179
    61     1356.1774                  0.00015402333261
    62     1363.7423                  0.00015231929779
    63     1421.2404                  0.00000000000000
    64     1446.4761                  0.00000000249801
    65     1458.0090                  0.00000000245865
    66     1542.7182                  0.00000000000000
    67     1561.7949                  0.00000000000000
    68     1637.9665                  0.00000000000000
    69     1676.1554                  0.00000000000000
    70     1702.2915                  0.00000000000000
    71     2868.6239                  0.00000000000000
    72     2907.5400                  0.00003015068431
    73     2911.1748                  0.00000949943025
    74     2914.3408                  0.00002828546269
    75     2971.4589                  0.00002005910769
    76     2974.3506                  0.00000861331612
    77     2976.7644                  0.00001856051422
    78     2977.0351                  0.00000071446972
    79     2977.8405                  0.00000012089462
    80     3061.0145                  0.00000308019987
    81     3061.7296                  0.00000298682974
    82     3062.2194                  0.00000401530910
    83     3062.7164                  0.00000245246013
    84     3063.3594                  0.00000363610839
--------------------------------------------------------------------------------
  Thermal conductivity =     0.013225 W/(m.K) 
--------------------------------------------------------------------------------

--------------------------------------------------------------------------------
  Phonon properties (per mole of unit cells): Temperature =  50000.000 K
--------------------------------------------------------------------------------
  Zero point energy            =        5.860527 eV
  Entropy                      =        0.033740 eV/K
                               =     3255.374557 J/(mol.K)
  Helmholtz free-energy        =    -1346.599815 eV
                               =  -129926.286151 kJmol-1
  Free energy (equipartition)  =    -1346.627140 eV
  - T*S       (equipartition)  =    -1686.962627 eV
  Uvib        (equipartition)  =      340.384777 eV
  Mean kinetic energy          =      180.991381 eV
  Heat capacity - const volume =        0.006807 eV/K
                               =      656.733065 J/(mol.K)
--------------------------------------------------------------------------------

  Phonon density of states : 

--------------------------------------------------------------------------------
 Frequency (cm-1) Density of States                                             
--------------------------------------------------------------------------------
    0.00000 |************************************************************  0.120
   47.86499 |                                                              0.000
   95.72998 |******************                                            0.036
  143.59498 |******                                                        0.012
  191.45997 |******************                                            0.036
  239.32496 |************                                                  0.024
  287.18995 |******                                                        0.012
  335.05495 |************                                                  0.024
  382.91994 |******                                                        0.012
  430.78493 |******                                                        0.012
  478.64992 |************                                                  0.024
  526.51491 |******                                                        0.012
  574.37991 |                                                              0.000
  622.24490 |******                                                        0.012
  670.10989 |******                                                        0.012
  717.97488 |************                                                  0.024
  765.83987 |                                                              0.000
  813.70487 |******************                                            0.036
  861.56986 |************************                                      0.048
  909.43485 |******************                                            0.036
  957.29984 |******************                                            0.036
 1005.16484 |******************                                            0.036
 1053.02983 |************                                                  0.024
 1100.89482 |******                                                        0.012
 1148.75981 |******                                                        0.012
 1196.62480 |******                                                        0.012
 1244.48980 |******************                                            0.036
 1292.35479 |************************                                      0.048
 1340.21978 |************                                                  0.024
 1388.08477 |******                                                        0.012
 1435.94976 |************                                                  0.024
 1483.81476 |                                                              0.000
 1531.67975 |************                                                  0.024
 1579.54474 |                                                              0.000
 1627.40973 |******                                                        0.012
 1675.27473 |************                                                  0.024
 1723.13972 |                                                              0.000
 1771.00471 |                                                              0.000
 1818.86970 |                                                              0.000
 1866.73469 |                                                              0.000
 1914.59969 |                                                              0.000
 1962.46468 |                                                              0.000
 2010.32967 |                                                              0.000
 2058.19466 |                                                              0.000
 2106.05966 |                                                              0.000
 2153.92465 |                                                              0.000
 2201.78964 |                                                              0.000
 2249.65463 |                                                              0.000
 2297.51962 |                                                              0.000
 2345.38462 |                                                              0.000
 2393.24961 |                                                              0.000
 2441.11460 |                                                              0.000
 2488.97959 |                                                              0.000
 2536.84458 |                                                              0.000
 2584.70958 |                                                              0.000
 2632.57457 |                                                              0.000
 2680.43956 |                                                              0.000
 2728.30455 |                                                              0.000
 2776.16955 |                                                              0.000
 2824.03454 |******                                                        0.012
 2871.89953 |******************                                            0.036
 2919.76452 |                                                              0.000
 2967.62951 |******************************                                0.060
 3015.49451 |******************************                                0.060
--------------------------------------------------------------------------------



  Time to end of optimisation =      79.0880 seconds


  Peak dynamic memory used =       0.83 MB 


  Timing analysis for GULP :

--------------------------------------------------------------------------------
  Task / Subroutine                                          Time (Seconds)
--------------------------------------------------------------------------------
  Calculation of real space energy and derivatives               30.1240
  Calculation of three-body energy and derivatives               22.4680
  Calculation of four-body energy and derivatives                16.4480
  Calculation of molecules and connectivity                       7.0200
  Calculation of phonons                                          0.0320
  Calculation of scattering                                       0.0000
  Calculation of matrix inversion                                 0.8960
  Global summation overhead                                       0.0320
--------------------------------------------------------------------------------
  Total CPU time                                                 79.0880
--------------------------------------------------------------------------------


  LAMMPS file written on channel 26


  Job Finished at 12:04.50 13th July       2013                               

