ITEM: TIMESTEP
0
ITEM: NUMBER OF ATOMS
3200
ITEM: BOX BOUNDS pp pp pp xy xz yz
-10.0614 27.514 2.03708e-15
2.99545e-07 33.268 -10.0614
0.000260682 36.8037 2.95234e-15
ITEM: ATOMS id type xu yu zu
 1 1 -0.427 6.122 6.534
 2 2 -0.735 5.301 5.464
 3 3 6.024 3.067 7.215
 4 4 5.676 2.104 5.952
 5 5 0.58 2.153 8.386
 6 6 1.831 1.544 8.495
 7 7 3.256 6.849 4.068
 8 8 4.497 6.225 4.187
 9 9 3.012 5.787 9.415
 10 10 3.552 6.724 8.548
 11 11 1.505 1.676 4.016
 12 12 2.041 2.621 3.15
 13 13 -0.319 5.552 7.869
 14 14 0.583 7.15 6.411
 15 15 -0.945 3.883 5.667
 16 16 -0.035 5.473 4.201
 17 17 5.117 2.915 8.39
 18 18 6.028 4.516 6.906
 19 19 4.498 1.21 6.146
 20 20 5.408 2.815 4.673
 21 21 0.351 3.457 8.959
 22 22 -0.162 2.07 7.137
 23 23 2.905 2.229 9.187
 24 24 2.402 0.842 7.357
 25 25 2.693 7.557 5.195
 26 26 2.174 6.169 3.366
 27 27 5.229 6.303 5.433
 28 28 4.719 4.918 3.619
 29 29 1.584 5.54 9.427
 30 30 3.678 4.516 9.606
 31 31 2.686 7.467 7.65
 32 32 4.785 6.445 7.836
 33 33 0.274 1.957 4.727
 34 34 2.377 0.942 4.912
 35 35 1.376 3.888 2.951
 36 36 3.475 2.864 3.148
 37 37 -0.521 4.2 8.07
 38 38 1.261 7.313 5.208
 39 39 -0.834 3.339 6.939
 40 40 0.939 6.455 4.067
 41 41 4.156 1.941 8.494
 42 42 5.916 5.042 5.643
 43 43 3.838 1.071 7.351
 44 44 5.586 4.169 4.496
 45 45 1.384 4.118 9.629
 46 46 0.383 1.401 6.058
 47 47 2.686 3.482 9.743
 48 48 1.687 0.76 6.17
 49 49 3.392 7.633 6.391
 50 50 2.387 4.921 2.816
 51 51 4.69 6.997 6.517
 52 52 3.685 4.267 2.941
 53 53 0.746 6.245 8.567
 54 54 4.856 4.233 8.917
 55 55 1.313 7.231 7.657
 56 56 5.417 5.217 8.014
 57 57 -0.374 3.177 4.534
 58 58 3.74 1.186 4.923
 59 59 0.19 4.161 3.628
 60 60 4.302 2.162 4.016
 61 61 6.996 2.024 6.696
 62 62 7.233 0.82 7.562
 63 63 8.232 2.551 5.957
 64 64 8.606 1.757 4.708
 65 65 9.771 2.425 3.961
 66 66 9.422 3.817 3.499
 67 67 8.337 4.16 3.086
 68 68 10.474 4.643 3.58
 69 69 10.23 6.027 3.198
 70 70 7.215 -0.467 7.027
 71 71 7.496 -1.566 7.827
 72 72 7.776 -1.394 9.172
 73 73 7.791 -0.125 9.721
 74 74 7.527 0.982 8.915
 75 75 9.062 2.563 6.656
 76 76 8.046 3.505 5.69
 77 77 7.794 1.703 4.028
 78 78 8.856 0.807 4.983
 79 79 10.03 1.923 3.112
 80 80 10.571 2.48 4.538
 81 81 11.188 6.426 3.143
 82 82 9.596 6.452 3.944
 83 83 9.781 6.07 2.35
 84 84 6.966 -0.694 6.052
 85 85 7.442 -2.467 7.403
 86 86 8.018 -2.187 9.747
 87 87 8.044 0.025 10.703
 88 88 7.539 1.931 9.287
 89 1 14.852 14.439 2.667
 90 2 15.16 13.618 3.737
 91 3 8.401 11.384 1.986
 92 4 8.749 10.421 3.249
 93 5 13.845 10.47 0.815
 94 6 12.594 9.861 0.706
 95 7 11.169 15.166 5.133
 96 8 9.928 14.542 5.014
 97 9 11.413 14.104 -0.214
 98 10 10.873 15.041 0.653
 99 11 12.92 9.993 5.185
 100 12 12.384 10.938 6.051
 101 13 14.744 13.869 1.332
 102 14 13.842 15.467 2.79
 103 15 15.37 12.2 3.534
 104 16 14.46 13.79 5
 105 17 9.308 11.232 0.811
 106 18 8.397 12.833 2.295
 107 19 9.927 9.527 3.055
 108 20 9.017 11.132 4.528
 109 21 14.074 11.774 0.242
 110 22 14.587 10.387 2.064
 111 23 11.52 10.546 0.014
 112 24 12.023 9.159 1.844
 113 25 11.732 15.874 4.006
 114 26 12.251 14.486 5.835
 115 27 9.196 14.62 3.768
 116 28 9.706 13.235 5.582
 117 29 12.841 13.857 -0.226
 118 30 10.747 12.833 -0.405
 119 31 11.739 15.784 1.551
 120 32 9.64 14.762 1.365
 121 33 14.151 10.274 4.474
 122 34 12.048 9.259 4.289
 123 35 13.049 12.205 6.25
 124 36 10.95 11.181 6.053
 125 37 14.946 12.517 1.131
 126 38 13.164 15.63 3.993
 127 39 15.259 11.656 2.262
 128 40 13.486 14.772 5.134
 129 41 10.269 10.258 0.707
 130 42 8.509 13.359 3.558
 131 43 10.587 9.388 1.85
 132 44 8.839 12.486 4.705
 133 45 13.041 12.435 -0.428
 134 46 14.042 9.718 3.143
 135 47 11.739 11.799 -0.542
 136 48 12.738 9.077 3.031
 137 49 11.033 15.95 2.81
 138 50 12.038 13.238 6.385
 139 51 9.735 15.314 2.684
 140 52 10.74 12.584 6.26
 141 53 13.679 14.562 0.634
 142 54 9.569 12.55 0.284
 143 55 13.112 15.548 1.544
 144 56 9.008 13.534 1.187
 145 57 14.799 11.494 4.667
 146 58 10.685 9.503 4.278
 147 59 14.235 12.478 5.573
 148 60 10.123 10.479 5.185
 149 61 7.429 10.341 2.505
 150 62 7.192 9.137 1.639
 151 63 6.193 10.868 3.244
 152 64 5.819 10.074 4.493
 153 65 4.654 10.742 5.24
 154 66 5.003 12.134 5.702
 155 67 6.088 12.477 6.115
 156 68 3.951 12.96 5.621
 157 69 4.195 14.344 6.003
 158 70 7.21 7.85 2.174
 159 71 6.929 6.751 1.374
 160 72 6.649 6.923 0.029
 161 73 6.634 8.192 -0.52
 162 74 6.898 9.299 0.286
 163 75 5.363 10.88 2.545
 164 76 6.379 11.822 3.511
 165 77 6.631 10.02 5.173
 166 78 5.569 9.124 4.218
 167 79 4.395 10.24 6.089
 168 80 3.854 10.797 4.663
 169 81 3.237 14.743 6.058
 170 82 4.829 14.769 5.257
 171 83 4.644 14.387 6.851
 172 84 7.459 7.623 3.149
 173 85 6.983 5.85 1.798
 174 86 6.407 6.13 -0.546
 175 87 6.381 8.342 -1.502
 176 88 6.886 10.248 -0.086
 177 1 19.215 10.512 11.868
 178 2 19.523 11.333 12.938
 179 3 12.764 13.567 11.187
 180 4 13.112 14.53 12.45
 181 5 18.208 14.481 10.016
 182 6 16.957 15.09 9.907
 183 7 15.532 9.785 14.334
 184 8 14.291 10.409 14.215
 185 9 15.776 10.847 8.987
 186 10 15.236 9.91 9.854
 187 11 17.283 14.958 14.386
 188 12 16.747 14.013 15.252
 189 13 19.107 11.082 10.533
 190 14 18.205 9.484 11.991
 191 15 19.733 12.751 12.735
 192 16 18.823 11.161 14.201
 193 17 13.671 13.719 10.012
 194 18 12.76 12.118 11.496
 195 19 14.29 15.424 12.256
 196 20 13.38 13.819 13.729
 197 21 18.437 13.177 9.443
 198 22 18.95 14.564 11.265
 199 23 15.883 14.405 9.215
 200 24 16.386 15.792 11.045
 201 25 16.095 9.077 13.207
 202 26 16.614 10.465 15.036
 203 27 13.559 10.331 12.969
 204 28 14.069 11.716 14.783
 205 29 17.204 11.094 8.975
 206 30 15.11 12.118 8.796
 207 31 16.102 9.167 10.752
 208 32 14.003 10.189 10.566
 209 33 18.514 14.677 13.675
 210 34 16.411 15.692 13.49
 211 35 17.412 12.746 15.451
 212 36 15.313 13.77 15.254
 213 37 19.309 12.434 10.332
 214 38 17.527 9.321 13.194
 215 39 19.622 13.295 11.463
 216 40 17.849 10.179 14.335
 217 41 14.632 14.693 9.908
 218 42 12.872 11.592 12.759
 219 43 14.95 15.563 11.051
 220 44 13.202 12.465 13.906
 221 45 17.404 12.516 8.773
 222 46 18.405 15.233 12.344
 223 47 16.102 13.152 8.659
 224 48 17.101 15.874 12.232
 225 49 15.396 9.001 12.011
 226 50 16.401 11.713 15.586
 227 51 14.098 9.637 11.885
 228 52 15.103 12.367 15.461
 229 53 18.042 10.389 9.835
 230 54 13.932 12.401 9.485
 231 55 17.475 9.403 10.745
 232 56 13.371 11.417 10.388
 233 57 19.162 13.457 13.868
 234 58 15.048 15.448 13.479
 235 59 18.598 12.473 14.774
 236 60 14.486 14.472 14.386
 237 61 11.792 14.61 11.706
 238 62 11.555 15.814 10.84
 239 63 10.556 14.083 12.445
 240 64 10.182 14.877 13.694
 241 65 9.017 14.209 14.441
 242 66 9.366 12.817 14.903
 243 67 10.451 12.474 15.316
 244 68 8.314 11.991 14.822
 245 69 8.558 10.607 15.204
 246 70 11.573 17.101 11.375
 247 71 11.292 18.2 10.575
 248 72 11.012 18.028 9.23
 249 73 10.997 16.759 8.681
 250 74 11.261 15.652 9.487
 251 75 9.726 14.071 11.746
 252 76 10.742 13.129 12.712
 253 77 10.994 14.931 14.374
 254 78 9.932 15.827 13.419
 255 79 8.758 14.711 15.29
 256 80 8.217 14.154 13.864
 257 81 7.6 10.208 15.259
 258 82 9.192 10.182 14.458
 259 83 9.007 10.564 16.052
 260 84 11.822 17.328 12.35
 261 85 11.346 19.101 10.999
 262 86 10.77 18.821 8.655
 263 87 10.744 16.609 7.699
 264 88 11.249 14.703 9.115
 265 1 3.936 2.195 15.735
 266 2 3.628 3.016 14.665
 267 3 10.387 5.25 16.416
 268 4 10.039 6.213 15.153
 269 5 4.943 6.164 17.587
 270 6 6.194 6.773 17.696
 271 7 7.619 1.468 13.269
 272 8 8.86 2.092 13.388
 273 9 7.375 2.53 18.616
 274 10 7.915 1.593 17.749
 275 11 5.868 6.641 13.217
 276 12 6.404 5.696 12.351
 277 13 4.044 2.765 17.07
 278 14 4.946 1.167 15.612
 279 15 3.418 4.434 14.868
 280 16 4.328 2.844 13.402
 281 17 9.48 5.402 17.591
 282 18 10.391 3.801 16.107
 283 19 8.861 7.107 15.347
 284 20 9.771 5.502 13.874
 285 21 4.714 4.86 18.16
 286 22 4.201 6.247 16.338
 287 23 7.268 6.088 18.388
 288 24 6.765 7.475 16.558
 289 25 7.056 0.76 14.396
 290 26 6.537 2.148 12.567
 291 27 9.592 2.014 14.634
 292 28 9.082 3.399 12.82
 293 29 5.947 2.777 18.628
 294 30 8.041 3.801 18.807
 295 31 7.049 0.85 16.851
 296 32 9.148 1.872 17.037
 297 33 4.637 6.36 13.928
 298 34 6.74 7.375 14.113
 299 35 5.739 4.429 12.152
 300 36 7.838 5.453 12.349
 301 37 3.842 4.117 17.271
 302 38 5.624 1.004 14.409
 303 39 3.529 4.978 16.14
 304 40 5.302 1.862 13.268
 305 41 8.519 6.376 17.695
 306 42 10.279 3.275 14.844
 307 43 8.201 7.246 16.552
 308 44 9.949 4.148 13.697
 309 45 5.747 4.199 18.83
 310 46 4.746 6.916 15.259
 311 47 7.049 4.835 18.944
 312 48 6.05 7.557 15.371
 313 49 7.755 0.684 15.592
 314 50 6.75 3.396 12.017
 315 51 9.053 1.32 15.718
 316 52 8.048 4.05 12.142
 317 53 5.109 2.072 17.768
 318 54 9.219 4.084 18.118
 319 55 5.676 1.086 16.858
 320 56 9.78 3.1 17.215
 321 57 3.989 5.14 13.735
 322 58 8.103 7.131 14.124
 323 59 4.553 4.156 12.829
 324 60 8.665 6.155 13.217
 325 61 11.359 6.293 15.897
 326 62 11.596 7.497 16.763
 327 63 12.595 5.766 15.158
 328 64 12.969 6.56 13.909
 329 65 14.134 5.892 13.162
 330 66 13.785 4.5 12.7
 331 67 12.7 4.157 12.287
 332 68 14.837 3.674 12.781
 333 69 14.593 2.29 12.399
 334 70 11.578 8.784 16.228
 335 71 11.859 9.883 17.028
 336 72 12.139 9.711 18.373
 337 73 12.154 8.442 18.922
 338 74 11.89 7.335 18.116
 339 75 13.425 5.754 15.857
 340 76 12.409 4.812 14.891
 341 77 12.157 6.614 13.229
 342 78 13.219 7.51 14.184
 343 79 14.393 6.394 12.313
 344 80 14.934 5.837 13.739
 345 81 15.551 1.891 12.344
 346 82 13.959 1.865 13.145
 347 83 14.144 2.247 11.551
 348 84 11.329 9.011 15.253
 349 85 11.805 10.784 16.604
 350 86 12.381 10.504 18.948
 351 87 12.407 8.292 19.904
 352 88 11.902 6.386 18.488
 353 1 -5.458 6.122 24.936
 354 2 -5.766 5.301 23.866
 355 3 0.993 3.067 25.617
 356 4 0.645 2.104 24.354
 357 5 -4.451 2.153 26.788
 358 6 -3.2 1.544 26.897
 359 7 -1.775 6.849 22.47
 360 8 -0.534 6.225 22.589
 361 9 -2.019 5.787 27.817
 362 10 -1.479 6.724 26.95
 363 11 -3.526 1.676 22.418
 364 12 -2.99 2.621 21.552
 365 13 -5.35 5.552 26.271
 366 14 -4.448 7.15 24.813
 367 15 -5.976 3.883 24.069
 368 16 -5.066 5.473 22.603
 369 17 0.086 2.915 26.792
 370 18 0.997 4.516 25.308
 371 19 -0.533 1.21 24.548
 372 20 0.377 2.815 23.075
 373 21 -4.68 3.457 27.361
 374 22 -5.193 2.07 25.539
 375 23 -2.126 2.229 27.589
 376 24 -2.629 0.842 25.759
 377 25 -2.338 7.557 23.597
 378 26 -2.857 6.169 21.768
 379 27 0.198 6.303 23.835
 380 28 -0.312 4.918 22.021
 381 29 -3.447 5.54 27.829
 382 30 -1.353 4.516 28.008
 383 31 -2.345 7.467 26.052
 384 32 -0.246 6.445 26.238
 385 33 -4.757 1.957 23.129
 386 34 -2.654 0.942 23.314
 387 35 -3.655 3.888 21.353
 388 36 -1.556 2.864 21.55
 389 37 -5.552 4.2 26.472
 390 38 -3.77 7.313 23.61
 391 39 -5.865 3.339 25.341
 392 40 -4.092 6.455 22.469
 393 41 -0.875 1.941 26.896
 394 42 0.885 5.042 24.045
 395 43 -1.193 1.071 25.753
 396 44 0.555 4.169 22.898
 397 45 -3.647 4.118 28.031
 398 46 -4.648 1.401 24.46
 399 47 -2.345 3.482 28.145
 400 48 -3.344 0.76 24.572
 401 49 -1.639 7.633 24.793
 402 50 -2.644 4.921 21.218
 403 51 -0.341 6.997 24.919
 404 52 -1.346 4.267 21.343
 405 53 -4.285 6.245 26.969
 406 54 -0.175 4.233 27.319
 407 55 -3.718 7.231 26.059
 408 56 0.386 5.217 26.416
 409 57 -5.405 3.177 22.936
 410 58 -1.291 1.186 23.325
 411 59 -4.841 4.161 22.03
 412 60 -0.729 2.162 22.418
 413 61 1.965 2.024 25.098
 414 62 2.202 0.82 25.964
 415 63 3.201 2.551 24.359
 416 64 3.575 1.757 23.11
 417 65 4.74 2.425 22.363
 418 66 4.391 3.817 21.901
 419 67 3.306 4.16 21.488
 420 68 5.443 4.643 21.982
 421 69 5.199 6.027 21.6
 422 70 2.184 -0.467 25.429
 423 71 2.465 -1.566 26.229
 424 72 2.745 -1.394 27.574
 425 73 2.76 -0.125 28.123
 426 74 2.496 0.982 27.317
 427 75 4.031 2.563 25.058
 428 76 3.015 3.505 24.092
 429 77 2.763 1.703 22.43
 430 78 3.825 0.807 23.385
 431 79 4.999 1.923 21.514
 432 80 5.54 2.48 22.94
 433 81 6.157 6.426 21.545
 434 82 4.565 6.452 22.346
 435 83 4.75 6.07 20.752
 436 84 1.935 -0.694 24.454
 437 85 2.411 -2.467 25.805
 438 86 2.987 -2.187 28.149
 439 87 3.013 0.025 29.105
 440 88 2.508 1.931 27.689
 441 1 9.821 14.439 21.069
 442 2 10.129 13.618 22.139
 443 3 3.37 11.384 20.388
 444 4 3.718 10.421 21.651
 445 5 8.814 10.47 19.217
 446 6 7.563 9.861 19.108
 447 7 6.138 15.166 23.535
 448 8 4.897 14.542 23.416
 449 9 6.382 14.104 18.188
 450 10 5.842 15.041 19.055
 451 11 7.889 9.993 23.587
 452 12 7.353 10.938 24.453
 453 13 9.713 13.869 19.734
 454 14 8.811 15.467 21.192
 455 15 10.339 12.2 21.936
 456 16 9.429 13.79 23.402
 457 17 4.277 11.232 19.213
 458 18 3.366 12.833 20.697
 459 19 4.896 9.527 21.457
 460 20 3.986 11.132 22.93
 461 21 9.043 11.774 18.644
 462 22 9.556 10.387 20.466
 463 23 6.489 10.546 18.416
 464 24 6.992 9.159 20.246
 465 25 6.701 15.874 22.408
 466 26 7.22 14.486 24.237
 467 27 4.165 14.62 22.17
 468 28 4.675 13.235 23.984
 469 29 7.81 13.857 18.176
 470 30 5.716 12.833 17.997
 471 31 6.708 15.784 19.953
 472 32 4.609 14.762 19.767
 473 33 9.12 10.274 22.876
 474 34 7.017 9.259 22.691
 475 35 8.018 12.205 24.652
 476 36 5.919 11.181 24.455
 477 37 9.915 12.517 19.533
 478 38 8.133 15.63 22.395
 479 39 10.228 11.656 20.664
 480 40 8.455 14.772 23.536
 481 41 5.238 10.258 19.109
 482 42 3.478 13.359 21.96
 483 43 5.556 9.388 20.252
 484 44 3.808 12.486 23.107
 485 45 8.01 12.435 17.974
 486 46 9.011 9.718 21.545
 487 47 6.708 11.799 17.86
 488 48 7.707 9.077 21.433
 489 49 6.002 15.95 21.212
 490 50 7.007 13.238 24.787
 491 51 4.704 15.314 21.086
 492 52 5.709 12.584 24.662
 493 53 8.648 14.562 19.036
 494 54 4.538 12.55 18.686
 495 55 8.081 15.548 19.946
 496 56 3.977 13.534 19.589
 497 57 9.768 11.494 23.069
 498 58 5.654 9.503 22.68
 499 59 9.204 12.478 23.975
 500 60 5.092 10.479 23.587
 501 61 2.398 10.341 20.907
 502 62 2.161 9.137 20.041
 503 63 1.162 10.868 21.646
 504 64 0.788 10.074 22.895
 505 65 -0.377 10.742 23.642
 506 66 -0.028 12.134 24.104
 507 67 1.057 12.477 24.517
 508 68 -1.08 12.96 24.023
 509 69 -0.836 14.344 24.405
 510 70 2.179 7.85 20.576
 511 71 1.898 6.751 19.776
 512 72 1.618 6.923 18.431
 513 73 1.603 8.192 17.882
 514 74 1.867 9.299 18.688
 515 75 0.332 10.88 20.947
 516 76 1.348 11.822 21.913
 517 77 1.6 10.02 23.575
 518 78 0.538 9.124 22.62
 519 79 -0.636 10.24 24.491
 520 80 -1.177 10.797 23.065
 521 81 -1.794 14.743 24.46
 522 82 -0.202 14.769 23.659
 523 83 -0.387 14.387 25.253
 524 84 2.428 7.623 21.551
 525 85 1.952 5.85 20.2
 526 86 1.376 6.13 17.856
 527 87 1.35 8.342 16.9
 528 88 1.855 10.248 18.316
 529 1 14.184 10.512 30.27
 530 2 14.492 11.333 31.34
 531 3 7.733 13.567 29.589
 532 4 8.081 14.53 30.852
 533 5 13.177 14.481 28.418
 534 6 11.926 15.09 28.309
 535 7 10.501 9.785 32.736
 536 8 9.26 10.409 32.617
 537 9 10.745 10.847 27.389
 538 10 10.205 9.91 28.256
 539 11 12.252 14.958 32.788
 540 12 11.716 14.013 33.654
 541 13 14.076 11.082 28.935
 542 14 13.174 9.484 30.393
 543 15 14.702 12.751 31.137
 544 16 13.792 11.161 32.603
 545 17 8.64 13.719 28.414
 546 18 7.729 12.118 29.898
 547 19 9.259 15.424 30.658
 548 20 8.349 13.819 32.131
 549 21 13.406 13.177 27.845
 550 22 13.919 14.564 29.667
 551 23 10.852 14.405 27.617
 552 24 11.355 15.792 29.447
 553 25 11.064 9.077 31.609
 554 26 11.583 10.465 33.438
 555 27 8.528 10.331 31.371
 556 28 9.038 11.716 33.185
 557 29 12.173 11.094 27.377
 558 30 10.079 12.118 27.198
 559 31 11.071 9.167 29.154
 560 32 8.972 10.189 28.968
 561 33 13.483 14.677 32.077
 562 34 11.38 15.692 31.892
 563 35 12.381 12.746 33.853
 564 36 10.282 13.77 33.656
 565 37 14.278 12.434 28.734
 566 38 12.496 9.321 31.596
 567 39 14.591 13.295 29.865
 568 40 12.818 10.179 32.737
 569 41 9.601 14.693 28.31
 570 42 7.841 11.592 31.161
 571 43 9.919 15.563 29.453
 572 44 8.171 12.465 32.308
 573 45 12.373 12.516 27.175
 574 46 13.374 15.233 30.746
 575 47 11.071 13.152 27.061
 576 48 12.07 15.874 30.634
 577 49 10.365 9.001 30.413
 578 50 11.37 11.713 33.988
 579 51 9.067 9.637 30.287
 580 52 10.072 12.367 33.863
 581 53 13.011 10.389 28.237
 582 54 8.901 12.401 27.887
 583 55 12.444 9.403 29.147
 584 56 8.34 11.417 28.79
 585 57 14.131 13.457 32.27
 586 58 10.017 15.448 31.881
 587 59 13.567 12.473 33.176
 588 60 9.455 14.472 32.788
 589 61 6.761 14.61 30.108
 590 62 6.524 15.814 29.242
 591 63 5.525 14.083 30.847
 592 64 5.151 14.877 32.096
 593 65 3.986 14.209 32.843
 594 66 4.335 12.817 33.305
 595 67 5.42 12.474 33.718
 596 68 3.283 11.991 33.224
 597 69 3.527 10.607 33.606
 598 70 6.542 17.101 29.777
 599 71 6.261 18.2 28.977
 600 72 5.981 18.028 27.632
 601 73 5.966 16.759 27.083
 602 74 6.23 15.652 27.889
 603 75 4.695 14.071 30.148
 604 76 5.711 13.129 31.114
 605 77 5.963 14.931 32.776
 606 78 4.901 15.827 31.821
 607 79 3.727 14.711 33.692
 608 80 3.186 14.154 32.266
 609 81 2.569 10.208 33.661
 610 82 4.161 10.182 32.86
 611 83 3.976 10.564 34.454
 612 84 6.791 17.328 30.752
 613 85 6.315 19.101 29.401
 614 86 5.739 18.821 27.057
 615 87 5.713 16.609 26.101
 616 88 6.218 14.703 27.517
 617 1 -1.095 2.195 34.137
 618 2 -1.403 3.016 33.067
 619 3 5.356 5.25 34.818
 620 4 5.008 6.213 33.555
 621 5 -0.088 6.164 35.989
 622 6 1.163 6.773 36.098
 623 7 2.588 1.468 31.671
 624 8 3.829 2.092 31.79
 625 9 2.344 2.53 37.018
 626 10 2.884 1.593 36.151
 627 11 0.837 6.641 31.619
 628 12 1.373 5.696 30.753
 629 13 -0.987 2.765 35.472
 630 14 -0.085 1.167 34.014
 631 15 -1.613 4.434 33.27
 632 16 -0.703 2.844 31.804
 633 17 4.449 5.402 35.993
 634 18 5.36 3.801 34.509
 635 19 3.83 7.107 33.749
 636 20 4.74 5.502 32.276
 637 21 -0.317 4.86 36.562
 638 22 -0.83 6.247 34.74
 639 23 2.237 6.088 36.79
 640 24 1.734 7.475 34.96
 641 25 2.025 0.76 32.798
 642 26 1.506 2.148 30.969
 643 27 4.561 2.014 33.036
 644 28 4.051 3.399 31.222
 645 29 0.916 2.777 37.03
 646 30 3.01 3.801 37.209
 647 31 2.018 0.85 35.253
 648 32 4.117 1.872 35.439
 649 33 -0.394 6.36 32.33
 650 34 1.709 7.375 32.515
 651 35 0.708 4.429 30.554
 652 36 2.807 5.453 30.751
 653 37 -1.189 4.117 35.673
 654 38 0.593 1.004 32.811
 655 39 -1.502 4.978 34.542
 656 40 0.271 1.862 31.67
 657 41 3.488 6.376 36.097
 658 42 5.248 3.275 33.246
 659 43 3.17 7.246 34.954
 660 44 4.918 4.148 32.099
 661 45 0.716 4.199 37.232
 662 46 -0.285 6.916 33.661
 663 47 2.018 4.835 37.346
 664 48 1.019 7.557 33.773
 665 49 2.724 0.684 33.994
 666 50 1.719 3.396 30.419
 667 51 4.022 1.32 34.12
 668 52 3.017 4.05 30.544
 669 53 0.078 2.072 36.17
 670 54 4.188 4.084 36.52
 671 55 0.645 1.086 35.26
 672 56 4.749 3.1 35.617
 673 57 -1.042 5.14 32.137
 674 58 3.072 7.131 32.526
 675 59 -0.478 4.156 31.231
 676 60 3.634 6.155 31.619
 677 61 6.328 6.293 34.299
 678 62 6.565 7.497 35.165
 679 63 7.564 5.766 33.56
 680 64 7.938 6.56 32.311
 681 65 9.103 5.892 31.564
 682 66 8.754 4.5 31.102
 683 67 7.669 4.157 30.689
 684 68 9.806 3.674 31.183
 685 69 9.562 2.29 30.801
 686 70 6.547 8.784 34.63
 687 71 6.828 9.883 35.43
 688 72 7.108 9.711 36.775
 689 73 7.123 8.442 37.324
 690 74 6.859 7.335 36.518
 691 75 8.394 5.754 34.259
 692 76 7.378 4.812 33.293
 693 77 7.126 6.614 31.631
 694 78 8.188 7.51 32.586
 695 79 9.362 6.394 30.715
 696 80 9.903 5.837 32.141
 697 81 10.52 1.891 30.746
 698 82 8.928 1.865 31.547
 699 83 9.113 2.247 29.953
 700 84 6.298 9.011 33.655
 701 85 6.774 10.784 35.006
 702 86 7.35 10.504 37.35
 703 87 7.376 8.292 38.306
 704 88 6.871 6.386 36.89
 705 1 -0.427 22.756 6.534
 706 2 -0.735 21.935 5.464
 707 3 6.024 19.701 7.215
 708 4 5.676 18.738 5.952
 709 5 0.58 18.787 8.386
 710 6 1.831 18.178 8.495
 711 7 3.256 23.483 4.068
 712 8 4.497 22.859 4.187
 713 9 3.012 22.421 9.415
 714 10 3.552 23.358 8.548
 715 11 1.505 18.31 4.016
 716 12 2.041 19.255 3.15
 717 13 -0.319 22.186 7.869
 718 14 0.583 23.784 6.411
 719 15 -0.945 20.517 5.667
 720 16 -0.035 22.107 4.201
 721 17 5.117 19.549 8.39
 722 18 6.028 21.15 6.906
 723 19 4.498 17.844 6.146
 724 20 5.408 19.449 4.673
 725 21 0.351 20.091 8.959
 726 22 -0.162 18.704 7.137
 727 23 2.905 18.863 9.187
 728 24 2.402 17.476 7.357
 729 25 2.693 24.191 5.195
 730 26 2.174 22.803 3.366
 731 27 5.229 22.937 5.433
 732 28 4.719 21.552 3.619
 733 29 1.584 22.174 9.427
 734 30 3.678 21.15 9.606
 735 31 2.686 24.101 7.65
 736 32 4.785 23.079 7.836
 737 33 0.274 18.591 4.727
 738 34 2.377 17.576 4.912
 739 35 1.376 20.522 2.951
 740 36 3.475 19.498 3.148
 741 37 -0.521 20.834 8.07
 742 38 1.261 23.947 5.208
 743 39 -0.834 19.973 6.939
 744 40 0.939 23.089 4.067
 745 41 4.156 18.575 8.494
 746 42 5.916 21.676 5.643
 747 43 3.838 17.705 7.351
 748 44 5.586 20.803 4.496
 749 45 1.384 20.752 9.629
 750 46 0.383 18.035 6.058
 751 47 2.686 20.116 9.743
 752 48 1.687 17.394 6.17
 753 49 3.392 24.267 6.391
 754 50 2.387 21.555 2.816
 755 51 4.69 23.631 6.517
 756 52 3.685 20.901 2.941
 757 53 0.746 22.879 8.567
 758 54 4.856 20.867 8.917
 759 55 1.313 23.865 7.657
 760 56 5.417 21.851 8.014
 761 57 -0.374 19.811 4.534
 762 58 3.74 17.82 4.923
 763 59 0.19 20.795 3.628
 764 60 4.302 18.796 4.016
 765 61 6.996 18.658 6.696
 766 62 7.233 17.454 7.562
 767 63 8.232 19.185 5.957
 768 64 8.606 18.391 4.708
 769 65 9.771 19.059 3.961
 770 66 9.422 20.451 3.499
 771 67 8.337 20.794 3.086
 772 68 10.474 21.277 3.58
 773 69 10.23 22.661 3.198
 774 70 7.215 16.167 7.027
 775 71 7.496 15.068 7.827
 776 72 7.776 15.24 9.172
 777 73 7.791 16.509 9.721
 778 74 7.527 17.616 8.915
 779 75 9.062 19.197 6.656
 780 76 8.046 20.139 5.69
 781 77 7.794 18.337 4.028
 782 78 8.856 17.441 4.983
 783 79 10.03 18.557 3.112
 784 80 10.571 19.114 4.538
 785 81 11.188 23.06 3.143
 786 82 9.596 23.086 3.944
 787 83 9.781 22.704 2.35
 788 84 6.966 15.94 6.052
 789 85 7.442 14.167 7.403
 790 86 8.018 14.447 9.747
 791 87 8.044 16.659 10.703
 792 88 7.539 18.565 9.287
 793 1 14.852 31.073 2.667
 794 2 15.16 30.252 3.737
 795 3 8.401 28.018 1.986
 796 4 8.749 27.055 3.249
 797 5 13.845 27.104 0.815
 798 6 12.594 26.495 0.706
 799 7 11.169 31.8 5.133
 800 8 9.928 31.176 5.014
 801 9 11.413 30.738 -0.214
 802 10 10.873 31.675 0.653
 803 11 12.92 26.627 5.185
 804 12 12.384 27.572 6.051
 805 13 14.744 30.503 1.332
 806 14 13.842 32.101 2.79
 807 15 15.37 28.834 3.534
 808 16 14.46 30.424 5
 809 17 9.308 27.866 0.811
 810 18 8.397 29.467 2.295
 811 19 9.927 26.161 3.055
 812 20 9.017 27.766 4.528
 813 21 14.074 28.408 0.242
 814 22 14.587 27.021 2.064
 815 23 11.52 27.18 0.014
 816 24 12.023 25.793 1.844
 817 25 11.732 32.508 4.006
 818 26 12.251 31.12 5.835
 819 27 9.196 31.254 3.768
 820 28 9.706 29.869 5.582
 821 29 12.841 30.491 -0.226
 822 30 10.747 29.467 -0.405
 823 31 11.739 32.418 1.551
 824 32 9.64 31.396 1.365
 825 33 14.151 26.908 4.474
 826 34 12.048 25.893 4.289
 827 35 13.049 28.839 6.25
 828 36 10.95 27.815 6.053
 829 37 14.946 29.151 1.131
 830 38 13.164 32.264 3.993
 831 39 15.259 28.29 2.262
 832 40 13.486 31.406 5.134
 833 41 10.269 26.892 0.707
 834 42 8.509 29.993 3.558
 835 43 10.587 26.022 1.85
 836 44 8.839 29.12 4.705
 837 45 13.041 29.069 -0.428
 838 46 14.042 26.352 3.143
 839 47 11.739 28.433 -0.542
 840 48 12.738 25.711 3.031
 841 49 11.033 32.584 2.81
 842 50 12.038 29.872 6.385
 843 51 9.735 31.948 2.684
 844 52 10.74 29.218 6.26
 845 53 13.679 31.196 0.634
 846 54 9.569 29.184 0.284
 847 55 13.112 32.182 1.544
 848 56 9.008 30.168 1.187
 849 57 14.799 28.128 4.667
 850 58 10.685 26.137 4.278
 851 59 14.235 29.112 5.573
 852 60 10.123 27.113 5.185
 853 61 7.429 26.975 2.505
 854 62 7.192 25.771 1.639
 855 63 6.193 27.502 3.244
 856 64 5.819 26.708 4.493
 857 65 4.654 27.376 5.24
 858 66 5.003 28.768 5.702
 859 67 6.088 29.111 6.115
 860 68 3.951 29.594 5.621
 861 69 4.195 30.978 6.003
 862 70 7.21 24.484 2.174
 863 71 6.929 23.385 1.374
 864 72 6.649 23.557 0.029
 865 73 6.634 24.826 -0.52
 866 74 6.898 25.933 0.286
 867 75 5.363 27.514 2.545
 868 76 6.379 28.456 3.511
 869 77 6.631 26.654 5.173
 870 78 5.569 25.758 4.218
 871 79 4.395 26.874 6.089
 872 80 3.854 27.431 4.663
 873 81 3.237 31.377 6.058
 874 82 4.829 31.403 5.257
 875 83 4.644 31.021 6.851
 876 84 7.459 24.257 3.149
 877 85 6.983 22.484 1.798
 878 86 6.407 22.764 -0.546
 879 87 6.381 24.976 -1.502
 880 88 6.886 26.882 -0.086
 881 1 19.215 27.146 11.868
 882 2 19.523 27.967 12.938
 883 3 12.764 30.201 11.187
 884 4 13.112 31.164 12.45
 885 5 18.208 31.115 10.016
 886 6 16.957 31.724 9.907
 887 7 15.532 26.419 14.334
 888 8 14.291 27.043 14.215
 889 9 15.776 27.481 8.987
 890 10 15.236 26.544 9.854
 891 11 17.283 31.592 14.386
 892 12 16.747 30.647 15.252
 893 13 19.107 27.716 10.533
 894 14 18.205 26.118 11.991
 895 15 19.733 29.385 12.735
 896 16 18.823 27.795 14.201
 897 17 13.671 30.353 10.012
 898 18 12.76 28.752 11.496
 899 19 14.29 32.058 12.256
 900 20 13.38 30.453 13.729
 901 21 18.437 29.811 9.443
 902 22 18.95 31.198 11.265
 903 23 15.883 31.039 9.215
 904 24 16.386 32.426 11.045
 905 25 16.095 25.711 13.207
 906 26 16.614 27.099 15.036
 907 27 13.559 26.965 12.969
 908 28 14.069 28.35 14.783
 909 29 17.204 27.728 8.975
 910 30 15.11 28.752 8.796
 911 31 16.102 25.801 10.752
 912 32 14.003 26.823 10.566
 913 33 18.514 31.311 13.675
 914 34 16.411 32.326 13.49
 915 35 17.412 29.38 15.451
 916 36 15.313 30.404 15.254
 917 37 19.309 29.068 10.332
 918 38 17.527 25.955 13.194
 919 39 19.622 29.929 11.463
 920 40 17.849 26.813 14.335
 921 41 14.632 31.327 9.908
 922 42 12.872 28.226 12.759
 923 43 14.95 32.197 11.051
 924 44 13.202 29.099 13.906
 925 45 17.404 29.15 8.773
 926 46 18.405 31.867 12.344
 927 47 16.102 29.786 8.659
 928 48 17.101 32.508 12.232
 929 49 15.396 25.635 12.011
 930 50 16.401 28.347 15.586
 931 51 14.098 26.271 11.885
 932 52 15.103 29.001 15.461
 933 53 18.042 27.023 9.835
 934 54 13.932 29.035 9.485
 935 55 17.475 26.037 10.745
 936 56 13.371 28.051 10.388
 937 57 19.162 30.091 13.868
 938 58 15.048 32.082 13.479
 939 59 18.598 29.107 14.774
 940 60 14.486 31.106 14.386
 941 61 11.792 31.244 11.706
 942 62 11.555 32.448 10.84
 943 63 10.556 30.717 12.445
 944 64 10.182 31.511 13.694
 945 65 9.017 30.843 14.441
 946 66 9.366 29.451 14.903
 947 67 10.451 29.108 15.316
 948 68 8.314 28.625 14.822
 949 69 8.558 27.241 15.204
 950 70 11.573 33.735 11.375
 951 71 11.292 34.834 10.575
 952 72 11.012 34.662 9.23
 953 73 10.997 33.393 8.681
 954 74 11.261 32.286 9.487
 955 75 9.726 30.705 11.746
 956 76 10.742 29.763 12.712
 957 77 10.994 31.565 14.374
 958 78 9.932 32.461 13.419
 959 79 8.758 31.345 15.29
 960 80 8.217 30.788 13.864
 961 81 7.6 26.842 15.259
 962 82 9.192 26.816 14.458
 963 83 9.007 27.198 16.052
 964 84 11.822 33.962 12.35
 965 85 11.346 35.735 10.999
 966 86 10.77 35.455 8.655
 967 87 10.744 33.243 7.699
 968 88 11.249 31.337 9.115
 969 1 3.936 18.829 15.735
 970 2 3.628 19.65 14.665
 971 3 10.387 21.884 16.416
 972 4 10.039 22.847 15.153
 973 5 4.943 22.798 17.587
 974 6 6.194 23.407 17.696
 975 7 7.619 18.102 13.269
 976 8 8.86 18.726 13.388
 977 9 7.375 19.164 18.616
 978 10 7.915 18.227 17.749
 979 11 5.868 23.275 13.217
 980 12 6.404 22.33 12.351
 981 13 4.044 19.399 17.07
 982 14 4.946 17.801 15.612
 983 15 3.418 21.068 14.868
 984 16 4.328 19.478 13.402
 985 17 9.48 22.036 17.591
 986 18 10.391 20.435 16.107
 987 19 8.861 23.741 15.347
 988 20 9.771 22.136 13.874
 989 21 4.714 21.494 18.16
 990 22 4.201 22.881 16.338
 991 23 7.268 22.722 18.388
 992 24 6.765 24.109 16.558
 993 25 7.056 17.394 14.396
 994 26 6.537 18.782 12.567
 995 27 9.592 18.648 14.634
 996 28 9.082 20.033 12.82
 997 29 5.947 19.411 18.628
 998 30 8.041 20.435 18.807
 999 31 7.049 17.484 16.851
 1000 32 9.148 18.506 17.037
 1001 33 4.637 22.994 13.928
 1002 34 6.74 24.009 14.113
 1003 35 5.739 21.063 12.152
 1004 36 7.838 22.087 12.349
 1005 37 3.842 20.751 17.271
 1006 38 5.624 17.638 14.409
 1007 39 3.529 21.612 16.14
 1008 40 5.302 18.496 13.268
 1009 41 8.519 23.01 17.695
 1010 42 10.279 19.909 14.844
 1011 43 8.201 23.88 16.552
 1012 44 9.949 20.782 13.697
 1013 45 5.747 20.833 18.83
 1014 46 4.746 23.55 15.259
 1015 47 7.049 21.469 18.944
 1016 48 6.05 24.191 15.371
 1017 49 7.755 17.318 15.592
 1018 50 6.75 20.03 12.017
 1019 51 9.053 17.954 15.718
 1020 52 8.048 20.684 12.142
 1021 53 5.109 18.706 17.768
 1022 54 9.219 20.718 18.118
 1023 55 5.676 17.72 16.858
 1024 56 9.78 19.734 17.215
 1025 57 3.989 21.774 13.735
 1026 58 8.103 23.765 14.124
 1027 59 4.553 20.79 12.829
 1028 60 8.665 22.789 13.217
 1029 61 11.359 22.927 15.897
 1030 62 11.596 24.131 16.763
 1031 63 12.595 22.4 15.158
 1032 64 12.969 23.194 13.909
 1033 65 14.134 22.526 13.162
 1034 66 13.785 21.134 12.7
 1035 67 12.7 20.791 12.287
 1036 68 14.837 20.308 12.781
 1037 69 14.593 18.924 12.399
 1038 70 11.578 25.418 16.228
 1039 71 11.859 26.517 17.028
 1040 72 12.139 26.345 18.373
 1041 73 12.154 25.076 18.922
 1042 74 11.89 23.969 18.116
 1043 75 13.425 22.388 15.857
 1044 76 12.409 21.446 14.891
 1045 77 12.157 23.248 13.229
 1046 78 13.219 24.144 14.184
 1047 79 14.393 23.028 12.313
 1048 80 14.934 22.471 13.739
 1049 81 15.551 18.525 12.344
 1050 82 13.959 18.499 13.145
 1051 83 14.144 18.881 11.551
 1052 84 11.329 25.645 15.253
 1053 85 11.805 27.418 16.604
 1054 86 12.381 27.138 18.948
 1055 87 12.407 24.926 19.904
 1056 88 11.902 23.02 18.488
 1057 1 -5.458 22.756 24.936
 1058 2 -5.766 21.935 23.866
 1059 3 0.993 19.701 25.617
 1060 4 0.645 18.738 24.354
 1061 5 -4.451 18.787 26.788
 1062 6 -3.2 18.178 26.897
 1063 7 -1.775 23.483 22.47
 1064 8 -0.534 22.859 22.589
 1065 9 -2.019 22.421 27.817
 1066 10 -1.479 23.358 26.95
 1067 11 -3.526 18.31 22.418
 1068 12 -2.99 19.255 21.552
 1069 13 -5.35 22.186 26.271
 1070 14 -4.448 23.784 24.813
 1071 15 -5.976 20.517 24.069
 1072 16 -5.066 22.107 22.603
 1073 17 0.086 19.549 26.792
 1074 18 0.997 21.15 25.308
 1075 19 -0.533 17.844 24.548
 1076 20 0.377 19.449 23.075
 1077 21 -4.68 20.091 27.361
 1078 22 -5.193 18.704 25.539
 1079 23 -2.126 18.863 27.589
 1080 24 -2.629 17.476 25.759
 1081 25 -2.338 24.191 23.597
 1082 26 -2.857 22.803 21.768
 1083 27 0.198 22.937 23.835
 1084 28 -0.312 21.552 22.021
 1085 29 -3.447 22.174 27.829
 1086 30 -1.353 21.15 28.008
 1087 31 -2.345 24.101 26.052
 1088 32 -0.246 23.079 26.238
 1089 33 -4.757 18.591 23.129
 1090 34 -2.654 17.576 23.314
 1091 35 -3.655 20.522 21.353