ITEM: TIMESTEP
0
ITEM: NUMBER OF ATOMS
3008
ITEM: BOX BOUNDS pp pp pp xy xz yz
6.365 46.7557 5.09452
2.65768 38.1258 7.63616
-0.000433368 37.3584 5.31546
ITEM: ATOMS id type xu yu zu
 1 1 17.011 4.998 12.819
 2 2 17 3.372 12.839
 3 3 15.704 2.745 12.452
 4 4 14.632 3.458 11.953
 5 5 14.644 4.929 11.933
 6 6 15.722 5.63 12.412
 7 7 15.507 6.776 13.262
 8 8 16.516 6.784 14.301
 9 9 17.369 5.631 14.11
 10 10 17.82 4.948 15.212
 11 11 17.798 3.469 15.236
 12 12 17.346 2.756 14.148
 13 13 16.469 1.631 14.364
 14 14 15.459 1.631 13.329
 15 15 14.176 1.198 13.621
 16 16 13.05 1.92 13.072
 17 17 13.279 3.033 12.274
 18 18 12.452 4.218 12.436
 19 19 13.291 5.383 12.239
 20 20 13.093 6.521 13.009
 21 21 14.222 7.239 13.541
 22 22 13.894 7.719 14.866
 23 23 14.863 7.722 15.857
 24 24 16.207 7.255 15.575
 25 25 16.7 6.548 16.72
 26 26 17.478 5.403 16.547
 27 27 17.257 4.244 17.385
 28 28 17.453 3.065 16.578
 29 29 16.651 1.939 16.78
 30 30 16.15 1.213 15.65
 31 31 14.798 0.776 15.961
 32 32 13.832 0.769 14.963
 33 33 12.49 1.236 15.247
 34 34 12.005 1.953 14.087
 35 35 11.219 3.078 14.245
 36 36 11.449 4.245 13.406
 37 37 11.244 5.424 14.211
 38 38 12.05 6.55 14.021
 39 39 12.543 7.289 15.167
 40 40 12.211 6.877 16.455
 41 41 13.229 6.881 17.497
 42 42 14.526 7.298 17.204
 43 43 15.665 6.568 17.736
 44 44 15.455 5.455 18.538
 45 45 16.269 4.274 18.368
 46 46 15.427 3.102 18.577
 47 47 15.619 1.97 17.81
 48 48 14.473 1.248 17.287
 49 49 13.184 1.694 17.566
 50 50 12.171 1.688 16.527
 51 51 11.346 2.871 16.695
 52 52 10.888 3.55 15.575
 53 53 10.898 5.006 15.555
 54 54 11.381 5.704 16.646
 55 55 11.87 4.992 17.818
 56 56 11.848 3.609 17.835
 57 57 12.984 2.879 18.376
 58 58 14.086 3.564 18.872
 59 59 14.101 5.027 18.842
 60 60 13.009 5.721 18.331
 61 61 17.919 4.168 11.931
 62 62 17.616 4.163 10.46
 63 63 17.48 2.953 9.781
 64 64 17.158 2.932 8.424
 65 65 16.956 4.122 7.749
 66 66 17.076 5.329 8.415
 67 67 21.974 6.464 14.806
 68 68 21.142 4.381 14.706
 69 69 17.416 5.352 9.761
 70 70 19.409 4.166 12.291
 71 71 20.101 5.515 12.12
 72 72 21.543 5.464 12.65
 73 73 21.593 5.516 14.156
 74 74 21.028 4.375 16.157
 75 75 17.627 2.094 10.31
 76 76 17.025 2.029 7.96
 77 77 16.672 4.1 6.781
 78 78 16.972 6.207 7.954
 79 79 17.536 6.295 10.161
 80 80 19.867 3.49 11.699
 81 81 19.506 3.822 13.316
 82 82 20.159 5.792 11.098
 83 83 19.564 6.228 12.614
 84 84 22.074 6.218 12.295
 85 85 22.021 4.599 12.401
 86 86 20.557 5.155 16.463
 87 87 22.02 4.396 16.551
 88 88 20.489 3.506 16.345
 89 1 13.066 11.556 14.378
 90 2 13.169 13.172 14.532
 91 3 12.021 13.813 15.235
 92 4 11.016 13.1 15.86
 93 5 10.926 11.638 15.722
 94 6 11.838 10.946 14.966
 95 7 11.38 9.92 14.059
 96 8 12.167 9.984 12.845
 97 9 13.121 11.063 12.982
 98 10 13.4 11.847 11.891
 99 11 13.481 13.318 12.028
 100 12 13.299 13.919 13.253
 101 13 12.482 15.105 13.337
 102 14 11.692 15.033 14.547
 103 15 10.412 15.561 14.564
 104 16 9.364 14.836 15.248
 105 17 9.661 13.628 15.863
 106 18 8.735 12.513 15.745
 107 19 9.511 11.292 15.646
 108 20 9.086 10.264 14.816
 109 21 10.036 9.558 13.996
 110 22 9.425 9.254 12.72
 111 23 10.182 9.32 11.561
 112 24 11.586 9.682 11.616
 113 25 11.897 10.494 10.477
 114 26 12.775 11.57 10.611
 115 27 12.481 12.829 9.961
 116 28 12.914 13.894 10.832
 117 29 12.171 15.075 10.914
 118 30 11.951 15.686 12.192
 119 31 10.6 16.224 12.206
 120 32 9.847 16.162 13.372
 121 33 8.445 15.799 13.314
 122 34 8.143 14.976 14.464
 123 35 7.262 13.918 14.349
 124 36 7.565 12.651 14.997
 125 37 7.124 11.586 14.13
 126 38 7.868 10.407 14.035
 127 39 8.076 9.784 12.742
 128 40 7.532 10.361 11.597
 129 41 8.327 10.428 10.379
 130 42 9.623 9.916 10.36
 131 43 10.687 10.645 9.692
 132 44 10.407 11.853 9.07
 133 45 11.322 12.965 9.197
 134 46 10.542 14.193 9.285
 135 47 10.96 15.216 10.114
 136 48 9.992 15.928 10.929
 137 49 8.644 15.583 10.867
 138 50 7.853 15.518 12.083
 139 51 6.929 14.405 11.959
 140 52 6.647 13.622 13.07
 141 53 6.556 12.176 12.933
 142 54 6.768 11.588 11.701
 143 55 7.072 12.407 10.537
 144 56 7.147 13.782 10.67
 145 57 8.206 14.513 9.994
 146 58 9.14 13.837 9.218
 147 59 9.054 12.382 9.09
 148 60 8.035 11.688 9.732
 149 61 14.186 12.229 15.15
 150 62 14.174 12.077 16.644
 151 63 14.654 13.106 17.453
 152 64 14.61 12.995 18.842
 153 65 14.071 11.862 19.424
 154 66 13.582 10.838 18.631
 155 67 18.704 8.896 13.214
 156 68 18.812 9.379 15.405
 157 69 13.642 10.939 17.247
 158 70 15.575 12.2 14.501
 159 71 16.283 10.85 14.586
 160 72 17.71 10.941 14.025
 161 73 18.448 9.631 14.14
 162 74 19.607 8.177 15.612
 163 75 15.035 13.931 16.993
 164 76 14.932 13.783 19.413
 165 77 13.995 11.809 20.429
 166 78 13.218 9.992 19.013
 167 79 13.303 10.108 16.738
 168 80 16.144 12.892 14.962
 169 81 15.469 12.502 13.465
 170 82 16.367 10.522 15.591
 171 83 15.739 10.159 14.068
 172 84 18.23 11.633 14.501
 173 85 17.726 11.166 13.03
 174 86 20.342 8.146 14.996
 175 87 18.969 7.342 15.427
 176 88 19.936 8.281 16.593
 177 1 3.184 12.736 5.86
 178 2 3.195 14.362 5.84
 179 3 4.491 14.989 6.227
 180 4 5.563 14.276 6.726
 181 5 5.551 12.805 6.746
 182 6 4.473 12.104 6.267
 183 7 4.688 10.958 5.417
 184 8 3.679 10.95 4.378
 185 9 2.826 12.103 4.569
 186 10 2.375 12.786 3.467
 187 11 2.397 14.265 3.443
 188 12 2.849 14.978 4.531
 189 13 3.726 16.103 4.315
 190 14 4.736 16.103 5.35
 191 15 6.019 16.536 5.058
 192 16 7.145 15.814 5.607
 193 17 6.916 14.701 6.405
 194 18 7.743 13.516 6.243
 195 19 6.904 12.351 6.44
 196 20 7.102 11.213 5.67
 197 21 5.973 10.495 5.138
 198 22 6.301 10.015 3.813
 199 23 5.332 10.012 2.822
 200 24 3.988 10.479 3.104
 201 25 3.495 11.186 1.959
 202 26 2.717 12.331 2.132
 203 27 2.938 13.49 1.294
 204 28 2.742 14.669 2.101
 205 29 3.544 15.795 1.899
 206 30 4.045 16.521 3.029
 207 31 5.397 16.958 2.718
 208 32 6.363 16.965 3.716
 209 33 7.705 16.498 3.432
 210 34 8.19 15.781 4.592
 211 35 8.976 14.656 4.434
 212 36 8.746 13.489 5.273
 213 37 8.951 12.31 4.468
 214 38 8.145 11.184 4.658
 215 39 7.652 10.445 3.512
 216 40 7.984 10.857 2.224
 217 41 6.966 10.853 1.182
 218 42 5.669 10.436 1.475
 219 43 4.53 11.166 0.943
 220 44 4.74 12.279 0.141
 221 45 3.926 13.46 0.311
 222 46 4.768 14.632 0.102
 223 47 4.576 15.764 0.869
 224 48 5.722 16.486 1.392
 225 49 7.011 16.04 1.113
 226 50 8.024 16.046 2.152
 227 51 8.849 14.863 1.984
 228 52 9.307 14.184 3.104
 229 53 9.297 12.728 3.124
 230 54 8.814 12.03 2.033
 231 55 8.325 12.742 0.861
 232 56 8.347 14.125 0.844
 233 57 7.211 14.855 0.303
 234 58 6.109 14.17 -0.193
 235 59 6.094 12.707 -0.163
 236 60 7.186 12.013 0.348
 237 61 2.276 13.566 6.748
 238 62 2.579 13.571 8.219
 239 63 2.715 14.781 8.898
 240 64 3.037 14.802 10.255
 241 65 3.239 13.612 10.93
 242 66 3.119 12.405 10.264
 243 67 -1.779 11.27 3.873
 244 68 -0.947 13.353 3.973
 245 69 2.779 12.382 8.918
 246 70 0.786 13.568 6.388
 247 71 0.094 12.219 6.559
 248 72 -1.348 12.27 6.029
 249 73 -1.398 12.218 4.523
 250 74 -0.833 13.359 2.522
 251 75 2.568 15.64 8.369
 252 76 3.17 15.705 10.719
 253 77 3.523 13.634 11.898
 254 78 3.223 11.527 10.725
 255 79 2.659 11.439 8.518
 256 80 0.328 14.244 6.98
 257 81 0.689 13.912 5.363
 258 82 0.036 11.942 7.581
 259 83 0.631 11.506 6.065
 260 84 -1.879 11.516 6.384
 261 85 -1.826 13.135 6.278
 262 86 -0.362 12.579 2.216
 263 87 -1.825 13.338 2.128
 264 88 -0.294 14.228 2.334
 265 1 7.129 6.178 4.301
 266 2 7.026 4.562 4.147
 267 3 8.174 3.921 3.444
 268 4 9.179 4.634 2.819
 269 5 9.269 6.096 2.957
 270 6 8.357 6.788 3.713
 271 7 8.815 7.814 4.62
 272 8 8.028 7.75 5.834
 273 9 7.074 6.671 5.697
 274 10 6.795 5.887 6.788
 275 11 6.714 4.416 6.651
 276 12 6.896 3.815 5.426
 277 13 7.713 2.629 5.342
 278 14 8.503 2.701 4.132
 279 15 9.783 2.173 4.115
 280 16 10.831 2.898 3.431
 281 17 10.534 4.106 2.816
 282 18 11.46 5.221 2.934
 283 19 10.684 6.442 3.033
 284 20 11.109 7.47 3.863
 285 21 10.159 8.176 4.683
 286 22 10.77 8.48 5.959
 287 23 10.013 8.414 7.118
 288 24 8.609 8.052 7.063
 289 25 8.298 7.24 8.202
 290 26 7.42 6.164 8.068
 291 27 7.714 4.905 8.718
 292 28 7.281 3.84 7.847
 293 29 8.024 2.659 7.765
 294 30 8.244 2.048 6.487
 295 31 9.595 1.51 6.473
 296 32 10.348 1.572 5.307
 297 33 11.75 1.935 5.365
 298 34 12.052 2.758 4.215
 299 35 12.933 3.816 4.33
 300 36 12.63 5.083 3.682
 301 37 13.071 6.148 4.549
 302 38 12.327 7.327 4.644
 303 39 12.119 7.95 5.937
 304 40 12.663 7.373 7.082
 305 41 11.868 7.306 8.3
 306 42 10.572 7.818 8.319
 307 43 9.508 7.089 8.987
 308 44 9.788 5.881 9.609
 309 45 8.873 4.769 9.482
 310 46 9.653 3.541 9.394
 311 47 9.235 2.518 8.565
 312 48 10.203 1.806 7.75
 313 49 11.551 2.151 7.812
 314 50 12.342 2.216 6.596
 315 51 13.266 3.329 6.72
 316 52 13.548 4.112 5.609
 317 53 13.639 5.558 5.746
 318 54 13.427 6.146 6.978
 319 55 13.123 5.327 8.142
 320 56 13.048 3.952 8.009
 321 57 11.989 3.221 8.685
 322 58 11.055 3.897 9.461
 323 59 11.141 5.352 9.589
 324 60 12.16 6.046 8.947
 325 61 6.009 5.505 3.529
 326 62 6.021 5.657 2.035
 327 63 5.541 4.628 1.226
 328 64 5.585 4.739 -0.163
 329 65 6.124 5.872 -0.745
 330 66 6.613 6.896 0.048
 331 67 1.491 8.838 5.465
 332 68 1.383 8.355 3.274
 333 69 6.553 6.795 1.432
 334 70 4.62 5.534 4.178
 335 71 3.912 6.884 4.093
 336 72 2.485 6.793 4.654
 337 73 1.747 8.103 4.539
 338 74 0.588 9.557 3.067
 339 75 5.16 3.803 1.686
 340 76 5.263 3.951 -0.734
 341 77 6.2 5.925 -1.75
 342 78 6.977 7.742 -0.334
 343 79 6.892 7.626 1.941
 344 80 4.051 4.842 3.717
 345 81 4.726 5.232 5.214
 346 82 3.828 7.212 3.088
 347 83 4.456 7.575 4.611
 348 84 1.965 6.101 4.178
 349 85 2.469 6.568 5.649
 350 86 -0.147 9.588 3.683
 351 87 1.226 10.392 3.252
 352 88 0.259 9.453 2.086
 353 1 19.558 20.074 12.819
 354 2 19.547 18.448 12.839
 355 3 18.251 17.821 12.452
 356 4 17.179 18.534 11.953
 357 5 17.191 20.005 11.933
 358 6 18.269 20.706 12.412
 359 7 18.054 21.852 13.262
 360 8 19.063 21.86 14.301
 361 9 19.916 20.707 14.11
 362 10 20.367 20.024 15.212
 363 11 20.345 18.545 15.236
 364 12 19.893 17.832 14.148
 365 13 19.016 16.707 14.364
 366 14 18.006 16.707 13.329
 367 15 16.723 16.274 13.621
 368 16 15.597 16.996 13.072
 369 17 15.826 18.109 12.274
 370 18 14.999 19.294 12.436
 371 19 15.838 20.459 12.239
 372 20 15.64 21.597 13.009
 373 21 16.769 22.315 13.541
 374 22 16.441 22.795 14.866
 375 23 17.41 22.798 15.857
 376 24 18.754 22.331 15.575
 377 25 19.247 21.624 16.72
 378 26 20.025 20.479 16.547
 379 27 19.804 19.32 17.385
 380 28 20 18.141 16.578
 381 29 19.198 17.015 16.78
 382 30 18.697 16.289 15.65
 383 31 17.345 15.852 15.961
 384 32 16.379 15.845 14.963
 385 33 15.037 16.312 15.247
 386 34 14.552 17.029 14.087
 387 35 13.766 18.154 14.245
 388 36 13.996 19.321 13.406
 389 37 13.791 20.5 14.211
 390 38 14.597 21.626 14.021
 391 39 15.09 22.365 15.167
 392 40 14.758 21.953 16.455
 393 41 15.776 21.957 17.497
 394 42 17.073 22.374 17.204
 395 43 18.212 21.644 17.736
 396 44 18.002 20.531 18.538
 397 45 18.816 19.35 18.368
 398 46 17.974 18.178 18.577
 399 47 18.166 17.046 17.81
 400 48 17.02 16.324 17.287
 401 49 15.731 16.77 17.566
 402 50 14.718 16.764 16.527
 403 51 13.893 17.947 16.695
 404 52 13.435 18.626 15.575
 405 53 13.445 20.082 15.555
 406 54 13.928 20.78 16.646
 407 55 14.417 20.068 17.818
 408 56 14.395 18.685 17.835
 409 57 15.531 17.955 18.376
 410 58 16.633 18.64 18.872
 411 59 16.648 20.103 18.842
 412 60 15.556 20.797 18.331
 413 61 20.466 19.244 11.931
 414 62 20.163 19.239 10.46
 415 63 20.027 18.029 9.781
 416 64 19.705 18.008 8.424
 417 65 19.503 19.198 7.749
 418 66 19.623 20.405 8.415
 419 67 24.521 21.54 14.806
 420 68 23.689 19.457 14.706
 421 69 19.963 20.428 9.761
 422 70 21.956 19.242 12.291
 423 71 22.648 20.591 12.12
 424 72 24.09 20.54 12.65
 425 73 24.14 20.592 14.156
 426 74 23.575 19.451 16.157
 427 75 20.174 17.17 10.31
 428 76 19.572 17.105 7.96
 429 77 19.219 19.176 6.781
 430 78 19.519 21.283 7.954
 431 79 20.083 21.371 10.161
 432 80 22.414 18.566 11.699
 433 81 22.053 18.898 13.316
 434 82 22.706 20.868 11.098
 435 83 22.111 21.304 12.614
 436 84 24.621 21.294 12.295
 437 85 24.568 19.675 12.401
 438 86 23.104 20.231 16.463
 439 87 24.567 19.472 16.551
 440 88 23.036 18.582 16.345
 441 1 15.613 26.632 14.378
 442 2 15.716 28.248 14.532
 443 3 14.568 28.889 15.235
 444 4 13.563 28.176 15.86
 445 5 13.473 26.714 15.722
 446 6 14.385 26.022 14.966
 447 7 13.927 24.996 14.059
 448 8 14.714 25.06 12.845
 449 9 15.668 26.139 12.982
 450 10 15.947 26.923 11.891
 451 11 16.028 28.394 12.028
 452 12 15.846 28.995 13.253
 453 13 15.029 30.181 13.337
 454 14 14.239 30.109 14.547
 455 15 12.959 30.637 14.564
 456 16 11.911 29.912 15.248
 457 17 12.208 28.704 15.863
 458 18 11.282 27.589 15.745
 459 19 12.058 26.368 15.646
 460 20 11.633 25.34 14.816
 461 21 12.583 24.634 13.996
 462 22 11.972 24.33 12.72
 463 23 12.729 24.396 11.561
 464 24 14.133 24.758 11.616
 465 25 14.444 25.57 10.477
 466 26 15.322 26.646 10.611
 467 27 15.028 27.905 9.961
 468 28 15.461 28.97 10.832
 469 29 14.718 30.151 10.914
 470 30 14.498 30.762 12.192
 471 31 13.147 31.3 12.206
 472 32 12.394 31.238 13.372
 473 33 10.992 30.875 13.314
 474 34 10.69 30.052 14.464
 475 35 9.809 28.994 14.349
 476 36 10.112 27.727 14.997
 477 37 9.671 26.662 14.13
 478 38 10.415 25.483 14.035
 479 39 10.623 24.86 12.742
 480 40 10.079 25.437 11.597
 481 41 10.874 25.504 10.379
 482 42 12.17 24.992 10.36
 483 43 13.234 25.721 9.692
 484 44 12.954 26.929 9.07
 485 45 13.869 28.041 9.197
 486 46 13.089 29.269 9.285
 487 47 13.507 30.292 10.114
 488 48 12.539 31.004 10.929
 489 49 11.191 30.659 10.867
 490 50 10.4 30.594 12.083
 491 51 9.476 29.481 11.959
 492 52 9.194 28.698 13.07
 493 53 9.103 27.252 12.933
 494 54 9.315 26.664 11.701
 495 55 9.619 27.483 10.537
 496 56 9.694 28.858 10.67
 497 57 10.753 29.589 9.994
 498 58 11.687 28.913 9.218
 499 59 11.601 27.458 9.09
 500 60 10.582 26.764 9.732
 501 61 16.733 27.305 15.15
 502 62 16.721 27.153 16.644
 503 63 17.201 28.182 17.453
 504 64 17.157 28.071 18.842
 505 65 16.618 26.938 19.424
 506 66 16.129 25.914 18.631
 507 67 21.251 23.972 13.214
 508 68 21.359 24.455 15.405
 509 69 16.189 26.015 17.247
 510 70 18.122 27.276 14.501
 511 71 18.83 25.926 14.586
 512 72 20.257 26.017 14.025
 513 73 20.995 24.707 14.14
 514 74 22.154 23.253 15.612
 515 75 17.582 29.007 16.993
 516 76 17.479 28.859 19.413
 517 77 16.542 26.885 20.429
 518 78 15.765 25.068 19.013
 519 79 15.85 25.184 16.738
 520 80 18.691 27.968 14.962
 521 81 18.016 27.578 13.465
 522 82 18.914 25.598 15.591
 523 83 18.286 25.235 14.068
 524 84 20.777 26.709 14.501
 525 85 20.273 26.242 13.03
 526 86 22.889 23.222 14.996
 527 87 21.516 22.418 15.427
 528 88 22.483 23.357 16.593
 529 1 5.731 27.812 5.86
 530 2 5.742 29.438 5.84
 531 3 7.038 30.065 6.227
 532 4 8.11 29.352 6.726
 533 5 8.098 27.881 6.746
 534 6 7.02 27.18 6.267
 535 7 7.235 26.034 5.417
 536 8 6.226 26.026 4.378
 537 9 5.373 27.179 4.569
 538 10 4.922 27.862 3.467
 539 11 4.944 29.341 3.443
 540 12 5.396 30.054 4.531
 541 13 6.273 31.179 4.315
 542 14 7.283 31.179 5.35
 543 15 8.566 31.612 5.058
 544 16 9.692 30.89 5.607
 545 17 9.463 29.777 6.405
 546 18 10.29 28.592 6.243
 547 19 9.451 27.427 6.44
 548 20 9.649 26.289 5.67
 549 21 8.52 25.571 5.138
 550 22 8.848 25.091 3.813
 551 23 7.879 25.088 2.822
 552 24 6.535 25.555 3.104
 553 25 6.042 26.262 1.959
 554 26 5.264 27.407 2.132
 555 27 5.485 28.566 1.294
 556 28 5.289 29.745 2.101
 557 29 6.091 30.871 1.899
 558 30 6.592 31.597 3.029
 559 31 7.944 32.034 2.718
 560 32 8.91 32.041 3.716
 561 33 10.252 31.574 3.432
 562 34 10.737 30.857 4.592
 563 35 11.523 29.732 4.434
 564 36 11.293 28.565 5.273
 565 37 11.498 27.386 4.468
 566 38 10.692 26.26 4.658
 567 39 10.199 25.521 3.512
 568 40 10.531 25.933 2.224
 569 41 9.513 25.929 1.182
 570 42 8.216 25.512 1.475
 571 43 7.077 26.242 0.943
 572 44 7.287 27.355 0.141
 573 45 6.473 28.536 0.311
 574 46 7.315 29.708 0.102
 575 47 7.123 30.84 0.869
 576 48 8.269 31.562 1.392
 577 49 9.558 31.116 1.113
 578 50 10.571 31.122 2.152
 579 51 11.396 29.939 1.984
 580 52 11.854 29.26 3.104
 581 53 11.844 27.804 3.124
 582 54 11.361 27.106 2.033
 583 55 10.872 27.818 0.861
 584 56 10.894 29.201 0.844
 585 57 9.758 29.931 0.303
 586 58 8.656 29.246 -0.193
 587 59 8.641 27.783 -0.163
 588 60 9.733 27.089 0.348
 589 61 4.823 28.642 6.748
 590 62 5.126 28.647 8.219
 591 63 5.262 29.857 8.898
 592 64 5.584 29.878 10.255
 593 65 5.786 28.688 10.93
 594 66 5.666 27.481 10.264
 595 67 0.768 26.346 3.873
 596 68 1.6 28.429 3.973
 597 69 5.326 27.458 8.918
 598 70 3.333 28.644 6.388
 599 71 2.641 27.295 6.559
 600 72 1.199 27.346 6.029
 601 73 1.149 27.294 4.523
 602 74 1.714 28.435 2.522
 603 75 5.115 30.716 8.369
 604 76 5.717 30.781 10.719
 605 77 6.07 28.71 11.898
 606 78 5.77 26.603 10.725
 607 79 5.206 26.515 8.518
 608 80 2.875 29.32 6.98
 609 81 3.236 28.988 5.363
 610 82 2.583 27.018 7.581
 611 83 3.178 26.582 6.065
 612 84 0.668 26.592 6.384
 613 85 0.721 28.211 6.278
 614 86 2.185 27.655 2.216
 615 87 0.722 28.414 2.128
 616 88 2.253 29.304 2.334
 617 1 9.676 21.254 4.301
 618 2 9.573 19.638 4.147
 619 3 10.721 18.997 3.444
 620 4 11.726 19.71 2.819
 621 5 11.816 21.172 2.957
 622 6 10.904 21.864 3.713
 623 7 11.362 22.89 4.62
 624 8 10.575 22.826 5.834
 625 9 9.621 21.747 5.697
 626 10 9.342 20.963 6.788
 627 11 9.261 19.492 6.651
 628 12 9.443 18.891 5.426
 629 13 10.26 17.705 5.342
 630 14 11.05 17.777 4.132
 631 15 12.33 17.249 4.115
 632 16 13.378 17.974 3.431
 633 17 13.081 19.182 2.816
 634 18 14.007 20.297 2.934
 635 19 13.231 21.518 3.033
 636 20 13.656 22.546 3.863
 637 21 12.706 23.252 4.683
 638 22 13.317 23.556 5.959
 639 23 12.56 23.49 7.118
 640 24 11.156 23.128 7.063
 641 25 10.845 22.316 8.202
 642 26 9.967 21.24 8.068
 643 27 10.261 19.981 8.718
 644 28 9.828 18.916 7.847
 645 29 10.571 17.735 7.765
 646 30 10.791 17.124 6.487
 647 31 12.142 16.586 6.473
 648 32 12.895 16.648 5.307
 649 33 14.297 17.011 5.365
 650 34 14.599 17.834 4.215
 651 35 15.48 18.892 4.33
 652 36 15.177 20.159 3.682
 653 37 15.618 21.224 4.549
 654 38 14.874 22.403 4.644
 655 39 14.666 23.026 5.937
 656 40 15.21 22.449 7.082
 657 41 14.415 22.382 8.3
 658 42 13.119 22.894 8.319
 659 43 12.055 22.165 8.987
 660 44 12.335 20.957 9.609
 661 45 11.42 19.845 9.482
 662 46 12.2 18.617 9.394
 663 47 11.782 17.594 8.565
 664 48 12.75 16.882 7.75
 665 49 14.098 17.227 7.812
 666 50 14.889 17.292 6.596
 667 51 15.813 18.405 6.72
 668 52 16.095 19.188 5.609
 669 53 16.186 20.634 5.746
 670 54 15.974 21.222 6.978
 671 55 15.67 20.403 8.142
 672 56 15.595 19.028 8.009
 673 57 14.536 18.297 8.685
 674 58 13.602 18.973 9.461
 675 59 13.688 20.428 9.589
 676 60 14.707 21.122 8.947
 677 61 8.556 20.581 3.529
 678 62 8.568 20.733 2.035
 679 63 8.088 19.704 1.226
 680 64 8.132 19.815 -0.163
 681 65 8.671 20.948 -0.745
 682 66 9.16 21.972 0.048
 683 67 4.038 23.914 5.465
 684 68 3.93 23.431 3.274
 685 69 9.1 21.871 1.432
 686 70 7.167 20.61 4.178
 687 71 6.459 21.96 4.093
 688 72 5.032 21.869 4.654
 689 73 4.294 23.179 4.539
 690 74 3.135 24.633 3.067
 691 75 7.707 18.879 1.686
 692 76 7.81 19.027 -0.734
 693 77 8.747 21.001 -1.75
 694 78 9.524 22.818 -0.334
 695 79 9.439 22.702 1.941
 696 80 6.598 19.918 3.717
 697 81 7.273 20.308 5.214
 698 82 6.375 22.288 3.088
 699 83 7.003 22.651 4.611
 700 84 4.512 21.177 4.178
 701 85 5.016 21.644 5.649
 702 86 2.4 24.664 3.683
 703 87 3.773 25.468 3.252
 704 88 2.806 24.529 2.086
 705 1 20.829 7.656 31.498
 706 2 20.818 6.03 31.518
 707 3 19.522 5.403 31.131
 708 4 18.45 6.116 30.632
 709 5 18.462 7.587 30.612
 710 6 19.54 8.288 31.091
 711 7 19.325 9.434 31.941
 712 8 20.334 9.442 32.98
 713 9 21.187 8.289 32.789
 714 10 21.638 7.606 33.891
 715 11 21.616 6.127 33.915
 716 12 21.164 5.414 32.827
 717 13 20.287 4.289 33.043
 718 14 19.277 4.289 32.008
 719 15 17.994 3.856 32.3
 720 16 16.868 4.578 31.751
 721 17 17.097 5.691 30.953
 722 18 16.27 6.876 31.115
 723 19 17.109 8.041 30.918
 724 20 16.911 9.179 31.688
 725 21 18.04 9.897 32.22
 726 22 17.712 10.377 33.545
 727 23 18.681 10.38 34.536
 728 24 20.025 9.913 34.254
 729 25 20.518 9.206 35.399
 730 26 21.296 8.061 35.226
 731 27 21.075 6.902 36.064
 732 28 21.271 5.723 35.257
 733 29 20.469 4.597 35.459
 734 30 19.968 3.871 34.329
 735 31 18.616 3.434 34.64
 736 32 17.65 3.427 33.642
 737 33 16.308 3.894 33.926
 738 34 15.823 4.611 32.766
 739 35 15.037 5.736 32.924
 740 36 15.267 6.903 32.085
 741 37 15.062 8.082 32.89
 742 38 15.868 9.208 32.7
 743 39 16.361 9.947 33.846
 744 40 16.029 9.535 35.134
 745 41 17.047 9.539 36.176
 746 42 18.344 9.956 35.883
 747 43 19.483 9.226 36.415
 748 44 19.273 8.113 37.217
 749 45 20.087 6.932 37.047
 750 46 19.245 5.76 37.256
 751 47 19.437 4.628 36.489
 752 48 18.291 3.906 35.966
 753 49 17.002 4.352 36.245
 754 50 15.989 4.346 35.206
 755 51 15.164 5.529 35.374
 756 52 14.706 6.208 34.254
 757 53 14.716 7.664 34.234
 758 54 15.199 8.362 35.325
 759 55 15.688 7.65 36.497
 760 56 15.666 6.267 36.514
 761 57 16.802 5.537 37.055
 762 58 17.904 6.222 37.551
 763 59 17.919 7.685 37.521
 764 60 16.827 8.379 37.01
 765 61 21.737 6.826 30.61
 766 62 21.434 6.821 29.139
 767 63 21.298 5.611 28.46
 768 64 20.976 5.59 27.103
 769 65 20.774 6.78 26.428
 770 66 20.894 7.987 27.094
 771 67 25.792 9.122 33.485
 772 68 24.96 7.039 33.385
 773 69 21.234 8.01 28.44
 774 70 23.227 6.824 30.97
 775 71 23.919 8.173 30.799
 776 72 25.361 8.122 31.329
 777 73 25.411 8.174 32.835
 778 74 24.846 7.033 34.836
 779 75 21.445 4.752 28.989
 780 76 20.843 4.687 26.639
 781 77 20.49 6.758 25.46
 782 78 20.79 8.865 26.633
 783 79 21.354 8.953 28.84
 784 80 23.685 6.148 30.378
 785 81 23.324 6.48 31.995
 786 82 23.977 8.45 29.777
 787 83 23.382 8.886 31.293
 788 84 25.892 8.876 30.974
 789 85 25.839 7.257 31.08
 790 86 24.375 7.813 35.142
 791 87 25.838 7.054 35.23
 792 88 24.307 6.164 35.024
 793 1 16.884 14.214 33.057
 794 2 16.987 15.83 33.211
 795 3 15.839 16.471 33.914
 796 4 14.834 15.758 34.539
 797 5 14.744 14.296 34.401
 798 6 15.656 13.604 33.645
 799 7 15.198 12.578 32.738
 800 8 15.985 12.642 31.524
 801 9 16.939 13.721 31.661
 802 10 17.218 14.505 30.57
 803 11 17.299 15.976 30.707
 804 12 17.117 16.577 31.932
 805 13 16.3 17.763 32.016
 806 14 15.51 17.691 33.226
 807 15 14.23 18.219 33.243
 808 16 13.182 17.494 33.927
 809 17 13.479 16.286 34.542
 810 18 12.553 15.171 34.424
 811 19 13.329 13.95 34.325
 812 20 12.904 12.922 33.495
 813 21 13.854 12.216 32.675
 814 22 13.243 11.912 31.399
 815 23 14 11.978 30.24
 816 24 15.404 12.34 30.295
 817 25 15.715 13.152 29.156
 818 26 16.593 14.228 29.29
 819 27 16.299 15.487 28.64
 820 28 16.732 16.552 29.511
 821 29 15.989 17.733 29.593
 822 30 15.769 18.344 30.871
 823 31 14.418 18.882 30.885
 824 32 13.665 18.82 32.051
 825 33 12.263 18.457 31.993
 826 34 11.961 17.634 33.143
 827 35 11.08 16.576 33.028
 828 36 11.383 15.309 33.676
 829 37 10.942 14.244 32.809
 830 38 11.686 13.065 32.714
 831 39 11.894 12.442 31.421
 832 40 11.35 13.019 30.276
 833 41 12.145 13.086 29.058
 834 42 13.441 12.574 29.039
 835 43 14.505 13.303 28.371
 836 44 14.225 14.511 27.749
 837 45 15.14 15.623 27.876
 838 46 14.36 16.851 27.964
 839 47 14.778 17.874 28.793
 840 48 13.81 18.586 29.608
 841 49 12.462 18.241 29.546
 842 50 11.671 18.176 30.762
 843 51 10.747 17.063 30.638
 844 52 10.465 16.28 31.749
 845 53 10.374 14.834 31.612
 846 54 10.586 14.246 30.38
 847 55 10.89 15.065 29.216
 848 56 10.965 16.44 29.349
 849 57 12.024 17.171 28.673
 850 58 12.958 16.495 27.897
 851 59 12.872 15.04 27.769
 852 60 11.853 14.346 28.411
 853 61 18.004 14.887 33.829
 854 62 17.992 14.735 35.323
 855 63 18.472 15.764 36.132
 856 64 18.428 15.653 37.521
 857 65 17.889 14.52 38.103
 858 66 17.4 13.496 37.31
 859 67 22.522 11.554 31.893
 860 68 22.63 12.037 34.084
 861 69 17.46 13.597 35.926
 862 70 19.393 14.858 33.18
 863 71 20.101 13.508 33.265
 864 72 21.528 13.599 32.704
 865 73 22.266 12.289 32.819
 866 74 23.425 10.835 34.291
 867 75 18.853 16.589 35.672
 868 76 18.75 16.441 38.092
 869 77 17.813 14.467 39.108
 870 78 17.036 12.65 37.692
 871 79 17.121 12.766 35.417
 872 80 19.962 15.55 33.641
 873 81 19.287 15.16 32.144
 874 82 20.185 13.18 34.27
 875 83 19.557 12.817 32.747
 876 84 22.048 14.291 33.18
 877 85 21.544 13.824 31.709
 878 86 24.16 10.804 33.675
 879 87 22.787 10 34.106
 880 88 23.754 10.939 35.272
 881 1 7.002 15.394 24.539
 882 2 7.013 17.02 24.519
 883 3 8.309 17.647 24.906
 884 4 9.381 16.934 25.405
 885 5 9.369 15.463 25.425
 886 6 8.291 14.762 24.946
 887 7 8.506 13.616 24.096
 888 8 7.497 13.608 23.057
 889 9 6.644 14.761 23.248
 890 10 6.193 15.444 22.146
 891 11 6.215 16.923 22.122
 892 12 6.667 17.636 23.21
 893 13 7.544 18.761 22.994
 894 14 8.554 18.761 24.029
 895 15 9.837 19.194 23.737
 896 16 10.963 18.472 24.286
 897 17 10.734 17.359 25.084
 898 18 11.561 16.174 24.922
 899 19 10.722 15.009 25.119
 900 20 10.92 13.871 24.349
 901 21 9.791 13.153 23.817
 902 22 10.119 12.673 22.492
 903 23 9.15 12.67 21.501
 904 24 7.806 13.137 21.783
 905 25 7.313 13.844 20.638
 906 26 6.535 14.989 20.811
 907 27 6.756 16.148 19.973
 908 28 6.56 17.327 20.78
 909 29 7.362 18.453 20.578
 910 30 7.863 19.179 21.708
 911 31 9.215 19.616 21.397
 912 32 10.181 19.623 22.395
 913 33 11.523 19.156 22.111
 914 34 12.008 18.439 23.271
 915 35 12.794 17.314 23.113
 916 36 12.564 16.147 23.952
 917 37 12.769 14.968 23.147
 918 38 11.963 13.842 23.337
 919 39 11.47 13.103 22.191
 920 40 11.802 13.515 20.903
 921 41 10.784 13.511 19.861
 922 42 9.487 13.094 20.154
 923 43 8.348 13.824 19.622
 924 44 8.558 14.937 18.82
 925 45 7.744 16.118 18.99
 926 46 8.586 17.29 18.781
 927 47 8.394 18.422 19.548
 928 48 9.54 19.144 20.071
 929 49 10.829 18.698 19.792
 930 50 11.842 18.704 20.831
 931 51 12.667 17.521 20.663
 932 52 13.125 16.842 21.783
 933 53 13.115 15.386 21.803
 934 54 12.632 14.688 20.712
 935 55 12.143 15.4 19.54
 936 56 12.165 16.783 19.523
 937 57 11.029 17.513 18.982
 938 58 9.927 16.828 18.486
 939 59 9.912 15.365 18.516
 940 60 11.004 14.671 19.027
 941 61 6.094 16.224 25.427
 942 62 6.397 16.229 26.898
 943 63 6.533 17.439 27.577
 944 64 6.855 17.46 28.934
 945 65 7.057 16.27 29.609
 946 66 6.937 15.063 28.943
 947 67 2.039 13.928 22.552
 948 68 2.871 16.011 22.652
 949 69 6.597 15.04 27.597
 950 70 4.604 16.226 25.067
 951 71 3.912 14.877 25.238
 952 72 2.47 14.928 24.708
 953 73 2.42 14.876 23.202
 954 74 2.985 16.017 21.201
 955 75 6.386 18.298 27.048
 956 76 6.988 18.363 29.398
 957 77 7.341 16.292 30.577
 958 78 7.041 14.185 29.404
 959 79 6.477 14.097 27.197
 960 80 4.146 16.902 25.659
 961 81 4.507 16.57 24.042
 962 82 3.854 14.6 26.26
 963 83 4.449 14.164 24.744
 964 84 1.939 14.174 25.063
 965 85 1.992 15.793 24.957
 966 86 3.456 15.237 20.895
 967 87 1.993 15.996 20.807
 968 88 3.524 16.886 21.013
 969 1 10.947 8.836 22.98
 970 2 10.844 7.22 22.826
 971 3 11.992 6.579 22.123
 972 4 12.997 7.292 21.498
 973 5 13.087 8.754 21.636
 974 6 12.175 9.446 22.392
 975 7 12.633 10.472 23.299
 976 8 11.846 10.408 24.513
 977 9 10.892 9.329 24.376
 978 10 10.613 8.545 25.467
 979 11 10.532 7.074 25.33
 980 12 10.714 6.473 24.105
 981 13 11.531 5.287 24.021
 982 14 12.321 5.359 22.811
 983 15 13.601 4.831 22.794
 984 16 14.649 5.556 22.11
 985 17 14.352 6.764 21.495
 986 18 15.278 7.879 21.613
 987 19 14.502 9.1 21.712
 988 20 14.927 10.128 22.542
 989 21 13.977 10.834 23.362
 990 22 14.588 11.138 24.638
 991 23 13.831 11.072 25.797
 992 24 12.427 10.71 25.742
 993 25 12.116 9.898 26.881
 994 26 11.238 8.822 26.747
 995 27 11.532 7.563 27.397
 996 28 11.099 6.498 26.526
 997 29 11.842 5.317 26.444
 998 30 12.062 4.706 25.166
 999 31 13.413 4.168 25.152
 1000 32 14.166 4.23 23.986
 1001 33 15.568 4.593 24.044
 1002 34 15.87 5.416 22.894
 1003 35 16.751 6.474 23.009
 1004 36 16.448 7.741 22.361
 1005 37 16.889 8.806 23.228
 1006 38 16.145 9.985 23.323
 1007 39 15.937 10.608 24.616
 1008 40 16.481 10.031 25.761
 1009 41 15.686 9.964 26.979
 1010 42 14.39 10.476 26.998
 1011 43 13.326 9.747 27.666
 1012 44 13.606 8.539 28.288
 1013 45 12.691 7.427 28.161
 1014 46 13.471 6.199 28.073
 1015 47 13.053 5.176 27.244
 1016 48 14.021 4.464 26.429
 1017 49 15.369 4.809 26.491
 1018 50 16.16 4.874 25.275
 1019 51 17.084 5.987 25.399
 1020 52 17.366 6.77 24.288
 1021 53 17.457 8.216 24.425
 1022 54 17.245 8.804 25.657
 1023 55 16.941 7.985 26.821
 1024 56 16.866 6.61 26.688
 1025 57 15.807 5.879 27.364
 1026 58 14.873 6.555 28.14
 1027 59 14.959 8.01 28.268
 1028 60 15.978 8.704 27.626
 1029 61 9.827 8.163 22.208
 1030 62 9.839 8.315 20.714
 1031 63 9.359 7.286 19.905
 1032 64 9.403 7.397 18.516
 1033 65 9.942 8.53 17.934
 1034 66 10.431 9.554 18.727
 1035 67 5.309 11.496 24.144
 1036 68 5.201 11.013 21.953
 1037 69 10.371 9.453 20.111
 1038 70 8.438 8.192 22.857
 1039 71 7.73 9.542 22.772
 1040 72 6.303 9.451 23.333
 1041 73 5.565 10.761 23.218
 1042 74 4.406 12.215 21.746
 1043 75 8.978 6.461 20.365
 1044 76 9.081 6.609 17.945
 1045 77 10.018 8.583 16.929
 1046 78 10.795 10.4 18.345
 1047 79 10.71 10.284 20.62
 1048 80 7.869 7.5 22.396
 1049 81 8.544 7.89 23.893
 1050 82 7.646 9.87 21.767
 1051 83 8.274 10.233 23.29
 1052 84 5.783 8.759 22.857
 1053 85 6.287 9.226 24.328
 1054 86 3.671 12.246 22.362
 1055 87 5.044 13.05 21.931
 1056 88 4.077 12.111 20.765
 1057 1 23.376 22.732 31.498
 1058 2 23.365 21.106 31.518
 1059 3 22.069 20.479 31.131
 1060 4 20.997 21.192 30.632
 1061 5 21.009 22.663 30.612
 1062 6 22.087 23.364 31.091
 1063 7 21.872 24.51 31.941
 1064 8 22.881 24.518 32.98
 1065 9 23.734 23.365 32.789
 1066 10 24.185 22.682 33.891
 1067 11 24.163 21.203 33.915
 1068 12 23.711 20.49 32.827
 1069 13 22.834 19.365 33.043
 1070 14 21.824 19.365 32.008
 1071 15 20.541 18.932 32.3
 1072 16 19.415 19.654 31.751
 1073 17 19.644 20.767 30.953
 1074 18 18.817 21.952 31.115
 1075 19 19.656 23.117 30.918
 1076 20 19.458 24.255 31.688
 1077 21 20.587 24.973 32.22
 1078 22 20.259 25.453 33.545
 1079 23 21.228 25.456 34.536
 1080 24 22.572 24.989 34.254
 1081 25 23.065 24.282 35.399
 1082 26 23.843 23.137 35.226