ITEM: TIMESTEP
0
ITEM: NUMBER OF ATOMS
2816
ITEM: BOX BOUNDS pp pp pp xy xz yz
2.9015 37.14 0.112531
2.99361 38.7801 6.37898
-0.314352 36.8804 6.4797
ITEM: ATOMS id type xu yu zu
 1 1 16.63 5.48 12.23
 2 2 16.03 4.05 11.44
 3 3 14.58 4.24 11.1
 4 4 13.89 5.44 10.88
 5 5 14.46 6.72 11.47
 6 6 15.63 6.65 12.15
 7 7 15.65 7.25 13.42
 8 8 16.45 6.42 14.25
 9 9 16.8 5.25 13.59
 10 10 17.12 4.06 14.29
 11 11 16.48 2.88 13.58
 12 12 15.94 2.94 12.36
 13 13 14.71 2.25 12.22
 14 14 13.85 3.04 11.41
 15 15 12.47 3.03 11.59
 16 16 11.71 4.23 11.53
 17 17 12.43 5.38 11.26
 18 18 12.09 6.64 11.91
 19 19 13.35 7.36 12.11
 20 20 13.46 8.01 13.37
 21 21 14.62 7.91 14.07
 22 22 14.4 7.91 15.48
 23 23 15.23 7.08 16.2
 24 24 16.24 6.28 15.6
 25 25 16.38 5.16 16.4
 26 26 16.75 4 15.69
 27 27 16.116 2.744 15.97
 28 28 15.836 2.124 14.66
 29 29 14.726 1.354 14.5
 30 30 14.106 1.494 13.24
 31 31 12.686 1.374 13.45
 32 32 11.876 2.194 12.64
 33 33 10.76 2.95 13.23
 34 34 10.66 4.26 12.55
 35 35 10.33 5.41 13.22
 36 36 11.09 6.64 12.89
 37 37 11.22 7.36 14.12
 38 38 12.47 7.99 14.37
 39 39 13 7.88 15.68
 40 40 12.46 7.15 16.75
 41 41 13.29 6.38 17.59
 42 42 14.71 6.29 17.35
 43 43 15.44 5.05 17.47
 44 44 14.8 3.85 17.8
 45 45 15.106 2.664 16.91
 46 46 13.916 1.884 16.8
 47 47 13.726 1.294 15.55
 48 48 12.486 1.354 14.89
 49 49 11.436 2.114 15.45
 50 50 10.57 2.91 14.6
 51 51 10.24 4.09 15.33
 52 52 10.18 5.3 14.65
 53 53 10.71 6.52 15.24
 54 54 11.3 6.38 16.47
 55 55 11.45 5.13 17.2
 56 56 10.89 4.03 16.62
 57 57 11.636 2.794 16.74
 58 58 12.866 2.694 17.39
 59 59 13.41 3.91 17.98
 60 60 12.69 5.11 17.88
 61 61 17.17 4.88 10.96
 62 62 16.84 5.45 9.54
 63 63 16.31 4.57 8.57
 64 64 15.88 4.96 7.32
 65 65 16.09 6.3 7.01
 66 66 16.56 7.22 7.91
 67 67 20.12 5.92 14.05
 68 68 20.84 3.71 13.95
 69 69 16.89 6.78 9.15
 70 70 18.57 4.21 11.28
 71 71 19.53 5.38 11.26
 72 72 20.87 4.91 11.94
 73 73 20.64 4.96 13.46
 74 74 20.85 3.68 15.41
 75 75 16.24 3.64 8.83
 76 76 15.46 4.28 6.61
 77 77 15.86 6.63 6.07
 78 78 16.67 8.2 7.69
 79 79 17.25 7.57 9.73
 80 80 18.66 3.68 10.53
 81 81 18.48 3.71 12.15
 82 82 19.72 5.79 10.31
 83 83 19.27 6.16 11.9
 84 84 21.32 5.82 11.77
 85 85 21.3 4.14 11.38
 86 86 19.91 3.95 15.48
 87 87 21.43 4.55 15.53
 88 88 21.43 2.87 15.62
 89 1 9.97 11.2 13.95
 90 2 10.13 12.93 14.21
 91 3 8.81 13.37 14.84
 92 4 7.93 12.63 15.59
 93 5 7.88 11.11 15.47
 94 6 8.81 10.55 14.61
 95 7 8.31 9.57 13.67
 96 8 9 9.77 12.39
 97 9 9.82 10.96 12.53
 98 10 10.2 11.74 11.48
 99 11 10.31 13.17 11.64
 100 12 10.1 13.69 12.89
 101 13 9.17 14.81 13
 102 14 8.41 14.6 14.16
 103 15 7.11 15.02 14.22
 104 16 6.14 14.32 14.92
 105 17 6.57 13.08 15.49
 106 18 5.7 11.98 15.49
 107 19 6.5 10.78 15.31
 108 20 6.05 9.83 14.41
 109 21 6.99 9.22 13.56
 110 22 6.34 8.81 12.29
 111 23 7.08 8.99 11.12
 112 24 8.4 9.54 11.17
 113 25 8.69 10.34 10.03
 114 26 9.51 11.45 10.23
 115 27 9.13 12.68 9.55
 116 28 9.61 13.76 10.45
 117 29 8.73 14.85 10.57
 118 30 8.47 15.34 11.92
 119 31 7.12 15.88 11.93
 120 32 6.45 15.76 13.14
 121 33 5.12 15.4 13.17
 122 34 4.92 14.48 14.23
 123 35 4.13 13.38 14.18
 124 36 4.62 12.1 14.71
 125 37 4.08 11.05 13.88
 126 38 4.87 9.91 13.68
 127 39 5 9.3 12.36
 128 40 4.4 9.94 11.29
 129 41 5.11 10.16 10.01
 130 42 6.43 9.73 9.95
 131 43 7.42 10.53 9.24
 132 44 7.08 11.69 8.65
 133 45 7.94 12.81 8.82
 134 46 7.14 14.05 8.93
 135 47 7.55 15.01 9.81
 136 48 6.49 15.61 10.7
 137 49 5.17 15.25 10.7
 138 50 4.47 15.08 11.99
 139 51 3.58 13.97 11.79
 140 52 3.47 13.12 12.92
 141 53 3.46 11.64 12.79
 142 54 3.63 11.11 11.53
 143 55 3.86 12.02 10.35
 144 56 3.76 13.39 10.48
 145 57 4.8 14.23 9.76
 146 58 5.78 13.61 8.97
 147 59 5.76 12.16 8.85
 148 60 4.8 11.45 9.48
 149 61 11.1 11.96 14.63
 150 62 11.13 11.9 16.11
 151 63 11.4 13.07 16.85
 152 64 11.41 12.97 18.2
 153 65 11.25 11.8 18.85
 154 66 11.07 10.56 18.17
 155 67 16.13 10.72 15.99
 156 68 14.39 11.4 17.31
 157 69 10.95 10.67 16.75
 158 70 12.36 11.98 13.81
 159 71 13.39 11.05 14.32
 160 72 14.42 12.04 15.02
 161 73 15.11 11.4 16.16
 162 74 14.93 10.67 18.43
 163 75 11.59 13.97 16.31
 164 76 11.48 13.97 18.66
 165 77 11.32 11.85 19.89
 166 78 10.93 9.67 18.59
 167 79 10.83 9.84 16.24
 168 80 12.84 12.87 14.06
 169 81 12.16 12 12.82
 170 82 13.27 10.41 15.04
 171 83 14.09 10.86 13.64
 172 84 14 12.62 15.75
 173 85 14.93 12.53 14.35
 174 86 14.4 11.01 19.19
 175 87 15.8 11.25 18.47
 176 88 15.14 9.74 18.07
 177 1 27.38 11.55 5.88
 178 2 27.76 13.22 6.16
 179 3 29.177 13.45 6.65
 180 4 30.147 12.44 6.88
 181 5 29.857 11.05 6.49
 182 6 28.62 10.69 5.9
 183 7 28.647 9.74 4.81
 184 8 27.62 10.14 3.84
 185 9 26.84 11.24 4.46
 186 10 26.56 12.24 3.53
 187 11 26.88 13.68 3.8
 188 12 27.56 14 4.97
 189 13 28.64 15.01 4.94
 190 14 29.637 14.66 5.98
 191 15 30.907 14.96 5.59
 192 16 31.887 13.88 5.85
 193 17 31.497 12.7 6.52
 194 18 32.147 11.5 5.97
 195 19 31.087 10.42 5.98
 196 20 31.117 9.53 4.95
 197 21 29.867 9.17 4.38
 198 22 30.087 9.07 2.98
 199 23 29.157 9.5 2.09
 200 24 27.88 9.96 2.52
 201 25 27.46 10.94 1.61
 202 26 26.74 12.1 2.11
 203 27 27.18 13.33 1.53
 204 28 27.19 14.33 2.56
 205 29 28.297 15.27 2.51
 206 30 28.987 15.72 3.74
 207 31 30.347 15.9 3.47
 208 32 31.357 15.6 4.4
 209 33 32.507 15.04 3.89
 210 34 32.877 14.04 4.83
 211 35 33.437 12.87 4.35
 212 36 33.097 11.54 5
 213 37 33.107 10.59 3.94
 214 38 32.157 9.55 3.95
 215 39 31.447 9.25 2.67
 216 40 31.757 9.9 1.54
 217 41 30.797 10.26 0.53
 218 42 29.457 10.01 0.81
 219 43 28.407 10.97 0.59
 220 44 28.797 12.18 0.04
 221 45 28.167 13.39 0.51
 222 46 29.177 14.42 0.52
 223 47 29.277 15.38 1.47
 224 48 30.567 15.78 2.03
 225 49 31.777 15.18 1.59
 226 50 32.827 14.86 2.55
 227 51 33.347 13.63 2.06
 228 52 33.767 12.65 2.96
 229 53 33.537 11.2 2.71
 230 54 32.837 10.83 1.51
 231 55 32.447 11.88 0.52
 232 56 32.707 13.24 0.8
 233 57 31.717 14.25 0.49
 234 58 30.457 13.88 0.05
 235 59 30.205 12.439 -0.294
 236 60 31.165 11.469 -0.054
 237 61 26.74 12.44 6.84
 238 62 27.05 11.98 8.24
 239 63 27.66 12.85 9.2
 240 64 27.95 12.33 10.54
 241 65 27.67 11.02 10.85
 242 66 27.08 10.23 9.93
 243 67 23.04 10.81 3.74
 244 68 23.37 13.06 3.59
 245 69 26.65 10.67 8.66
 246 70 25.22 12.83 6.51
 247 71 24.27 11.63 6.16
 248 72 22.95 12.2 5.67
 249 73 23.18 11.94 4.27
 250 74 23.71 13.03 2.19
 251 75 27.89 13.77 8.95
 252 76 28.39 12.88 11.18
 253 77 27.83 10.58 11.8
 254 78 26.94 9.28 10.2
 255 79 26.28 9.96 8.07
 256 80 24.77 13.4 7.26
 257 81 25.11 13.2 5.49
 258 82 24.06 11.31 7.13
 259 83 24.69 10.92 5.68
 260 84 22.15 11.71 5.79
 261 85 22.81 13.21 5.55
 262 86 24.15 13.89 2.2
 263 87 22.72 13.05 1.86
 264 88 24.1 12.13 2.12
 265 1 6.15 5.8 3.6
 266 2 6.12 4.04 3.85
 267 3 7.28 3.38 3.22
 268 4 8.25 3.89 2.38
 269 5 8.26 5.34 2.21
 270 6 7.43 6.16 2.95
 271 7 7.89 7.42 3.53
 272 8 7.13 7.58 4.81
 273 9 6.15 6.54 4.84
 274 10 6.06 6.02 6.1
 275 11 6.03 4.52 6.35
 276 12 6.28 3.74 5.21
 277 13 7.12 2.58 5.43
 278 14 7.73 2.32 4.12
 279 15 9.08 1.94 4.23
 280 16 10.06 2.51 3.32
 281 17 9.63 3.44 2.37
 282 18 10.53 4.6 2.21
 283 19 9.69 5.77 2.11
 284 20 10.14 6.96 2.76
 285 21 9.24 7.81 3.4
 286 22 9.86 8.35 4.55
 287 23 9.22 8.45 5.73
 288 24 7.82 8.16 5.84
 289 25 7.68 7.58 7.06
 290 26 6.78 6.54 7.28
 291 27 7.2 5.46 8.17
 292 28 6.71 4.23 7.56
 293 29 7.51 3.01 7.76
 294 30 7.71 2.19 6.6
 295 31 9.1 1.74 6.58
 296 32 9.72 1.53 5.42
 297 33 11.09 1.94 5.34
 298 34 11.3 2.48 4.04
 299 35 12.11 3.62 3.87
 300 36 11.71 4.65 2.89
 301 37 12.13 5.88 3.54
 302 38 11.42 7.02 3.42
 303 39 11.22 7.87 4.53
 304 40 11.87 7.53 5.72
 305 41 11.15 7.75 7
 306 42 9.85 8.28 7
 307 43 8.91 7.7 7.86
 308 44 9.28 6.65 8.7
 309 45 8.38 5.52 8.87
 310 46 9.19 4.27 8.98
 311 47 8.73 3.04 8.54
 312 48 9.74 2.29 7.77
 313 49 11.05 2.74 7.7
 314 50 11.74 2.5 6.42
 315 51 12.62 3.65 6.23
 316 52 12.82 4.13 4.95
 317 53 12.85 5.58 4.76
 318 54 12.7 6.38 5.84
 319 55 12.58 5.9 7.26
 320 56 12.51 4.54 7.42
 321 57 11.51 3.99 8.31
 322 58 10.57 4.79 8.95
 323 59 10.67 6.18 8.72
 324 60 11.66 6.68 7.92
 325 61 5.13 4.81 3.18
 326 62 5.14 4.94 1.65
 327 63 5.09 3.75 0.81
 328 64 5.14 3.9 -0.57
 329 65 5.14 5.13 -1.09
 330 66 5.12 6.3 -0.28
 331 67 0.51 4.42 1.12
 332 68 1.83 6.01 0.17
 333 69 5.06 6.16 1.08
 334 70 3.79 4.98 3.95
 335 71 2.58 4.49 3.11
 336 72 1.81 5.78 2.56
 337 73 1.33 5.32 1.23
 338 74 1.39 5.72 -1.16
 339 75 5.008 2.809 1.326
 340 76 5.018 3.059 -1.224
 341 77 5.138 5.329 -2.104
 342 78 5.148 7.169 -0.724
 343 79 4.938 7.049 1.636
 344 80 3.79 4.53 4.82
 345 81 3.4 5.99 3.92
 346 82 1.99 4.02 3.91
 347 83 2.96 3.89 2.42
 348 84 1 6.1 3.03
 349 85 2.41 6.45 2.04
 350 86 1.738 4.809 -1.264
 351 87 2.108 6.229 -1.694
 352 88 0.478 6.169 -1.204
 353 1 16.66 19.78 12.15
 354 2 16.56 18.07 12.04
 355 3 15.13 17.62 11.84
 356 4 14.13 18.38 11.32
 357 5 14.26 19.89 11.23
 358 6 15.39 20.44 11.74
 359 7 15.16 21.5 12.68
 360 8 16.15 21.4 13.77
 361 9 16.92 20.24 13.51
 362 10 17.52 19.51 14.49
 363 11 17.39 18.04 14.44
 364 12 16.77 17.42 13.37
 365 13 15.86 16.42 13.67
 366 14 14.81 16.56 12.71
 367 15 13.55 16.16 13.03
 368 16 12.52 16.91 12.55
 369 17 12.75 18.05 11.75
 370 18 11.96 19.24 11.88
 371 19 12.89 20.38 11.66
 372 20 12.73 21.46 12.54
 373 21 13.91 21.96 13.1
 374 22 13.63 22.49 14.46
 375 23 14.62 22.36 15.42
 376 24 15.86 21.79 15.08
 377 25 16.43 21.08 16.2
 378 26 17.14 19.91 15.9
 379 27 16.93 18.79 16.74
 380 28 17 17.63 15.8
 381 29 16.11 16.59 16.02
 382 30 15.5 15.99 14.97
 383 31 14.14 15.57 15.28
 384 32 13.21 15.73 14.34
 385 33 11.91 16.23 14.67
 386 34 11.49 17.04 13.59
 387 35 10.75 18.14 13.76
 388 36 11.09 19.33 12.95
 389 37 10.94 20.44 13.76
 390 38 11.82 21.46 13.61
 391 39 12.32 22.11 14.81
 392 40 11.99 21.72 16.06
 393 41 12.97 21.67 17.06
 394 42 14.28 21.93 16.79
 395 43 15.4 21.11 17.29
 396 44 15.2 19.97 18.02
 397 45 15.93 18.77 17.7
 398 46 15.01 17.71 17.94
 399 47 15.13 16.69 17.08
 400 48 13.89 16.02 16.59
 401 49 12.61 16.5 16.95
 402 50 11.53 16.65 15.93
 403 51 10.74 17.81 16.21
 404 52 10.44 18.58 15.12
 405 53 10.5 20.03 15.1
 406 54 11.04 20.61 16.22
 407 55 11.52 19.82 17.34
 408 56 11.36 18.45 17.37
 409 57 12.51 17.68 17.85
 410 58 13.71 18.22 18.33
 411 59 13.81 19.63 18.33
 412 60 12.75 20.42 17.82
 413 61 17.41 18.87 11.21
 414 62 17.05 18.73 9.74
 415 63 16.86 17.47 9.17
 416 64 16.42 17.42 7.86
 417 65 16.13 18.53 7.1
 418 66 16.26 19.76 7.6
 419 67 20.45 20.55 14.17
 420 68 20.92 18.37 14.11
 421 69 16.73 19.86 8.91
 422 70 18.86 18.62 11.61
 423 71 19.61 19.95 11.43
 424 72 20.96 19.59 12.04
 425 73 20.75 19.6 13.54
 426 74 20.71 18.22 15.51
 427 75 17 16.69 9.87
 428 76 16.34 16.38 7.47
 429 77 15.94 18.42 6.12
 430 78 16.1 20.64 7.13
 431 79 16.84 20.87 9.23
 432 80 19.35 18.17 10.82
 433 81 18.99 18.04 12.51
 434 82 19.97 20.25 10.5
 435 83 19.36 20.67 12.12
 436 84 21.47 20.44 11.77
 437 85 21.28 18.76 11.67
 438 86 21.49 18.77 15.74
 439 87 21 17.2 15.53
 440 88 19.78 18.5 15.62
 441 1 10.21 26.21 14.06
 442 2 10.12 27.96 14.25
 443 3 8.8 28.34 14.85
 444 4 7.99 27.49 15.59
 445 5 8.14 26.01 15.55
 446 6 9.12 25.41 14.75
 447 7 8.73 24.37 13.8
 448 8 9.37 24.6 12.51
 449 9 10.16 25.84 12.64
 450 10 10.43 26.63 11.55
 451 11 10.32 28.14 11.69
 452 12 10.12 28.67 12.97
 453 13 9.09 29.63 12.98
 454 14 8.28 29.49 14.18
 455 15 6.93 29.76 14.26
 456 16 6.04 28.88 14.97
 457 17 6.58 27.75 15.57
 458 18 5.79 26.54 15.52
 459 19 6.75 25.45 15.39
 460 20 6.45 24.36 14.59
 461 21 7.45 23.87 13.7
 462 22 6.87 23.43 12.5
 463 23 7.54 23.7 11.31
 464 24 8.85 24.28 11.28
 465 25 9.05 25.02 10.11
 466 26 9.81 26.27 10.3
 467 27 9.38 27.51 9.62
 468 28 9.63 28.61 10.52
 469 29 8.73 29.65 10.54
 470 30 8.36 30.07 11.86
 471 31 6.98 30.45 11.97
 472 32 6.33 30.25 13.12
 473 33 4.96 29.72 13.11
 474 34 4.82 28.8 14.22
 475 35 4.13 27.62 14.12
 476 36 4.63 26.45 14.77
 477 37 4.24 25.31 13.95
 478 38 5.2 24.3 13.85
 479 39 5.51 23.7 12.55
 480 40 4.86 24.15 11.36
 481 41 5.58 24.37 10.1
 482 42 6.96 24.18 10.06
 483 43 7.86 25.02 9.39
 484 44 7.39 26.16 8.8
 485 45 8.11 27.42 8.95
 486 46 7.18 28.48 9.02
 487 47 7.44 29.51 9.9
 488 48 6.38 30.07 10.71
 489 49 5.08 29.62 10.66
 490 50 4.35 29.37 11.88
 491 51 3.54 28.13 11.76
 492 52 3.49 27.26 12.86
 493 53 3.62 25.81 12.75
 494 54 3.92 25.31 11.49
 495 55 4 26.15 10.31
 496 56 3.85 27.52 10.46
 497 57 4.83 28.43 9.8
 498 58 5.85 27.84 9.07
 499 59 5.96 26.39 8.88
 500 60 5.09 25.56 9.49
 501 61 11.13 27.09 14.76
 502 62 11.28 27.1 16.24
 503 63 11.18 28.31 16.98
 504 64 11.37 28.28 18.39
 505 65 11.6 27.01 19
 506 66 11.68 25.86 18.27
 507 67 16.01 27.39 16.47
 508 68 15.45 25.19 16.79
 509 69 11.6 25.88 16.9
 510 70 12.4 27.17 13.92
 511 71 13.69 27.58 14.63
 512 72 14.55 26.24 14.82
 513 73 15.47 26.34 16.07
 514 74 15.59 25.25 18.28
 515 75 11.05 29.26 16.57
 516 76 11.35 29.15 18.89
 517 77 11.71 27.06 19.98
 518 78 11.8 25 18.84
 519 79 11.66 25 16.47
 520 80 12.41 28.01 13.42
 521 81 12.45 26.36 13.25
 522 82 14.24 28.24 14.04
 523 83 13.6 27.82 15.64
 524 84 15.25 26.37 14.11
 525 85 13.94 25.46 14.67
 526 86 15.36 24.3 18.45
 527 87 14.77 25.93 18.48
 528 88 16.52 25.72 18.35
 529 1 27.17 26.26 5.95
 530 2 27.7 27.77 6.49
 531 3 29.147 27.83 7.03
 532 4 30.017 26.72 7.1
 533 5 29.557 25.42 6.51
 534 6 28.33 25.31 5.88
 535 7 28.29 24.51 4.69
 536 8 27.32 25.2 3.83
 537 9 26.7 26.31 4.55
 538 10 26.53 27.4 3.75
 539 11 27.04 28.72 4.22
 540 12 27.71 28.79 5.38
 541 13 28.887 29.67 5.53
 542 14 29.777 29 6.47
 543 15 31.117 29.14 6.18
 544 16 32.017 28.1 6.35
 545 17 31.457 26.89 6.8
 546 18 31.907 25.66 6.16
 547 19 30.737 24.77 6.08
 548 20 30.727 24.06 4.87
 549 21 29.447 23.89 4.18
 550 22 29.687 23.93 2.82
 551 23 28.797 24.5 2.02
 552 24 27.63 25.17 2.48
 553 25 27.33 26.31 1.71
 554 26 26.78 27.41 2.34
 555 27 27.42 28.64 1.9
 556 28 27.54 29.46 3.1
 557 29 28.69 30.286 3.15
 558 30 29.33 30.426 4.46
 559 31 30.76 30.496 4.15
 560 32 31.647 29.97 5.09
 561 33 32.797 29.3 4.56
 562 34 33.067 28.16 5.36
 563 35 33.487 26.99 4.76
 564 36 32.917 25.7 5.2
 565 37 32.827 24.94 4.05
 566 38 31.747 24.12 3.89
 567 39 31.117 23.97 2.6
 568 40 31.557 24.69 1.48
 569 41 30.577 25.32 0.58
 570 42 29.217 25.18 0.8
 571 43 28.337 26.29 0.65
 572 44 28.867 27.56 0.26
 573 45 28.377 28.75 0.88
 574 46 29.53 29.616 0.96
 575 47 29.67 30.386 2.09
 576 48 30.94 30.526 2.74
 577 49 32.021 29.926 2.2
 578 50 33.017 29.32 3.14
 579 51 33.397 28.08 2.53
 580 52 33.717 26.97 3.32
 581 53 33.317 25.66 2.88
 582 54 32.737 25.56 1.61
 583 55 32.467 26.67 0.77
 584 56 32.807 27.94 1.22
 585 57 31.967 29.08 0.99
 586 58 30.717 28.95 0.35
 587 59 30.285 27.619 -0.064
 588 60 31.167 26.56 0.09
 589 61 26.55 27.05 7.03
 590 62 26.84 26.35 8.32
 591 63 27.48 27.02 9.38
 592 64 27.69 26.48 10.63
 593 65 27.54 25.19 10.84
 594 66 27.08 24.47 9.72
 595 67 23.23 25.84 3.75
 596 68 23.19 28.09 3.6
 597 69 26.71 25.01 8.52
 598 70 25.16 27.69 6.83
 599 71 24.15 26.57 6.46
 600 72 22.98 27.23 5.77
 601 73 23.19 26.93 4.27
 602 74 23.34 28.31 2.17
 603 75 27.65 27.99 9.22
 604 76 28.1 27.14 11.35
 605 77 27.88 24.67 11.7
 606 78 26.92 23.5 9.71
 607 79 26.36 24.3 7.86
 608 80 24.81 28.22 7.7
 609 81 25.12 28.17 5.89
 610 82 23.62 26.22 7.32
 611 83 24.59 25.8 6.3
 612 84 22.08 26.93 5.92
 613 85 23.07 28.19 5.52
 614 86 22.99 29.21 2.11
 615 87 22.52 27.74 1.73
 616 88 24.16 27.83 1.87
 617 1 6.24 20.54 4.08
 618 2 6.26 18.75 4.14
 619 3 7.35 18.16 3.25
 620 4 8.26 18.82 2.48
 621 5 8.35 20.36 2.51
 622 6 7.5 20.98 3.4
 623 7 8 22.13 4.14
 624 8 7.41 22.11 5.46
 625 9 6.36 21.08 5.47
 626 10 6.41 20.39 6.7
 627 11 6.46 18.92 6.72
 628 12 6.5 18.28 5.49
 629 13 7.39 17.12 5.37
 630 14 7.95 17.05 4.05
 631 15 9.21 16.6 3.89
 632 16 10.16 17.36 3
 633 17 9.67 18.45 2.3
 634 18 10.61 19.56 2.23
 635 19 9.72 20.74 2.31
 636 20 10.17 21.82 3.08
 637 21 9.28 22.62 3.95
 638 22 10.01 23.1 5.08
 639 23 9.45 23.05 6.33
 640 24 8.13 22.57 6.54
 641 25 8.05 21.9 7.77
 642 26 7.13 20.81 7.88
 643 27 7.67 19.61 8.57
 644 28 7.21 18.49 7.87
 645 29 8.04 17.36 7.74
 646 30 8.03 16.64 6.5
 647 31 9.43 16.28 6.26
 648 32 9.98 16.19 5.02
 649 33 11.36 16.57 4.84
 650 34 11.47 17.33 3.58
 651 35 12.31 18.43 3.56
 652 36 11.89 19.59 2.83
 653 37 12.25 20.72 3.56
 654 38 11.5 21.88 3.69
 655 39 11.36 22.65 4.96
 656 40 12.06 22.2 6.07
 657 41 11.49 22.19 7.39
 658 42 10.21 22.71 7.56
 659 43 9.32 21.98 8.44
 660 44 9.79 20.82 9.07
 661 45 8.97 19.63 9.22
 662 46 9.83 18.47 9.03
 663 47 9.37 17.36 8.35
 664 48 10.21 16.57 7.45
 665 49 11.53 17.06 7.23
 666 50 12.11 17.08 5.91
 667 51 13 18.22 5.86
 668 52 13.15 18.84 4.68
 669 53 13.13 20.33 4.65
 670 54 12.98 21.01 5.91
 671 55 12.86 20.3 7.13
 672 56 12.84 18.89 7.11
 673 57 11.98 18.14 7.97
 674 58 11.18 18.91 8.8
 675 59 11.21 20.37 8.82
 676 60 12.04 21.07 8.04
 677 61 5.21 19.67 3.6
 678 62 5.22 19.76 2.14
 679 63 5 18.67 1.45
 680 64 4.79 18.65 0.06
 681 65 4.96 19.84 -0.59
 682 66 5.2 21.03 0.05
 683 67 0.65 18.95 2.09
 684 68 1.56 20.8 1.09
 685 69 5.34 20.98 1.46
 686 70 3.96 19.72 4.53
 687 71 2.59 19.25 3.81
 688 72 1.95 20.59 3.4
 689 73 1.18 20.07 2.18
 690 74 1.32 20.02 -0.21
 691 75 4.93 17.8 1.9
 692 76 4.65 17.83 -0.48
 693 77 4.81 19.82 -1.59
 694 78 5.34 21.94 -0.39
 695 79 5.54 21.88 1.92
 696 80 4.1 19.21 5.36
 697 81 3.56 20.72 4.73
 698 82 2 18.9 4.54
 699 83 2.88 18.47 3.21
 700 84 1.26 20.98 3.92
 701 85 2.42 21.14 2.77
 702 86 1.998 19.389 -0.304
 703 87 1.708 20.819 -0.754
 704 88 0.298 19.849 -0.274
 705 1 19.89 8.99 30.85
 706 2 19.43 7.31 30.43
 707 3 17.98 7.26 30.23
 708 4 17.08 8.24 29.85
 709 5 17.52 9.65 30.05
 710 6 18.73 9.97 30.65
 711 7 18.67 10.88 31.76
 712 8 19.65 10.45 32.78
 713 9 20.15 9.18 32.28
 714 10 20.54 8.2 33.16
 715 11 20.19 6.73 32.84
 716 12 19.58 6.37 31.64
 717 13 18.48 5.54 31.71
 718 14 17.42 6.05 30.82
 719 15 16.07 5.87 31.09
 720 16 15.22 6.96 30.79
 721 17 15.71 8.12 30.23
 722 18 15.16 9.38 30.65
 723 19 16.3 10.31 30.67
 724 20 16.28 11.24 31.69
 725 21 17.52 11.46 32.3
 726 22 17.35 11.8 33.73
 727 23 18.3 11.4 34.59
 728 24 19.39 10.64 34.14
 729 25 19.77 9.6 35.02
 730 26 20.29 8.38 34.57
 731 27 19.83 7.12 35.2
 732 28 19.73 6.18 34.13
 733 29 18.656 5.234 34.1
 734 30 17.956 5.034 32.84
 735 31 16.626 4.834 33.18
 736 32 15.656 5.404 32.37
 737 33 14.44 5.99 32.81
 738 34 14.18 7.05 31.81
 739 35 13.62 8.2 32.25
 740 36 14.24 9.45 31.72
 741 37 14.23 10.47 32.68
 742 38 15.31 11.35 32.75
 743 39 15.93 11.67 34.01
 744 40 15.5 11.13 35.19
 745 41 16.45 10.54 36.1
 746 42 17.82 10.69 35.8
 747 43 18.81 9.61 36.15
 748 44 18.38 8.43 36.69
 749 45 18.85 7.16 36.21
 750 46 17.766 6.214 36.26
 751 47 17.646 5.354 35.21
 752 48 16.356 5.054 34.6
 753 49 15.236 5.654 35.08
 754 50 14.3 6.19 34.17
 755 51 13.76 7.42 34.61
 756 52 13.5 8.46 33.68
 757 53 13.91 9.78 33.97
 758 54 14.51 10.1 35.15
 759 55 14.81 9 36.08
 760 56 14.4 7.69 35.85
 761 57 15.29 6.58 36.15
 762 58 16.56 6.91 36.72
 763 59 16.98 8.3 37.01
 764 60 16.07 9.31 36.67
 765 61 20.5 8.13 29.84
 766 62 20.12 8.35 28.4
 767 63 20.11 7.26 27.59
 768 64 19.75 7.37 26.21
 769 65 19.51 8.66 25.72
 770 66 19.6 9.72 26.56
 771 67 23.64 9.33 33.32
 772 68 24.29 7.1 33.4
 773 69 19.92 9.64 27.89
 774 70 21.92 7.59 30.25
 775 71 22.94 8.74 30.24
 776 72 24.21 8.19 31.22
 777 73 23.97 8.23 32.78
 778 74 24.01 7.02 34.78
 779 75 20.34 6.33 27.87
 780 76 19.77 6.58 25.56
 781 77 19.29 8.79 24.73
 782 78 19.42 10.67 26.2
 783 79 20.05 10.53 28.51
 784 80 22.2 6.99 29.48
 785 81 21.77 6.98 31.09
 786 82 23.38 9.08 29.39
 787 83 22.59 9.41 30.92
 788 84 24.8 8.91 31.13
 789 85 24.62 7.45 30.76
 790 86 24.86 7.22 35.18
 791 87 24.15 5.94 34.73
 792 88 23.04 7.28 34.92
 793 1 13.53 14.66 32.58
 794 2 13.48 16.42 32.62
 795 3 12.16 16.85 33.19
 796 4 11.36 16.19 34.07
 797 5 11.45 14.69 34.15
 798 6 12.43 13.97 33.37
 799 7 11.95 12.87 32.52
 800 8 12.63 12.95 31.21
 801 9 13.44 14.15 31.2
 802 10 13.71 14.83 30.03
 803 11 13.69 16.34 30.09
 804 12 13.5 17.03 31.28
 805 13 12.48 18.1 31.24
 806 14 11.75 17.95 32.43
 807 15 10.45 18.39 32.46
 808 16 9.48 17.64 33.34
 809 17 9.96 16.54 34.08
 810 18 9.16 15.42 34.12
 811 19 10.07 14.24 34.05
 812 20 9.63 13.1 33.3
 813 21 10.62 12.43 32.44
 814 22 10 11.93 31.27
 815 23 10.69 12.03 30.04
 816 24 11.97 12.64 30.05
 817 25 12.21 13.31 28.84
 818 26 13 14.44 28.82
 819 27 12.62 15.6 28.08
 820 28 12.96 16.79 28.89
 821 29 12.06 17.91 28.87
 822 30 11.79 18.46 30.1
 823 31 10.44 18.91 30.12
 824 32 9.71 18.88 31.3
 825 33 8.29 18.48 31.4
 826 34 8.27 17.66 32.6
 827 35 7.51 16.5 32.65
 828 36 7.97 15.31 33.39
 829 37 7.51 14.13 32.66
 830 38 8.37 13.05 32.52
 831 39 8.64 12.38 31.28
 832 40 7.97 12.73 30.06
 833 41 8.68 12.83 28.85
 834 42 10.02 12.49 28.8
 835 43 10.96 13.34 28.09
 836 44 10.62 14.43 27.35
 837 45 11.4 15.65 27.36
 838 46 10.48 16.77 27.26
 839 47 10.85 17.88 28.08
 840 48 9.82 18.52 28.86
 841 49 8.45 18.12 28.89
 842 50 7.72 17.98 30.23
 843 51 6.93 16.75 30.24
 844 52 6.9 15.99 31.41
 845 53 6.94 14.54 31.41
 846 54 7.14 13.94 30.15
 847 55 7.35 14.67 28.92
 848 56 7.24 16.07 28.96
 849 57 8.12 16.91 28.19
 850 58 9.12 16.27 27.39
 851 59 9.21 14.81 27.34
 852 60 8.31 14.06 28.09
 853 61 14.54 15.6 33.18
 854 62 14.52 15.76 34.63
 855 63 14.52 17.01 35.24
 856 64 14.43 17.11 36.63
 857 65 14.46 16.03 37.44
 858 66 14.4 14.77 36.89
 859 67 18.43 16.18 35.62
 860 68 18.83 13.97 35.74
 861 69 14.39 14.65 35.49
 862 70 15.84 15.72 32.31
 863 71 17.01 16.19 33.2
 864 72 17.45 14.91 33.84
 865 73 18.28 15.07 35.15
 866 74 19.82 14.18 36.87
 867 75 14.6 17.77 34.69
 868 76 14.46 18.04 37.08
 869 77 14.52 16.21 38.4
 870 78 14.38 13.91 37.36
 871 79 14.3 13.73 35.07
 872 80 15.79 16.56 31.79
 873 81 15.93 14.82 31.74
 874 82 17.93 16.51 32.82
 875 83 16.82 16.74 34.03
 876 84 18.17 14.54 33.26
 877 85 16.72 14.25 33.85
 878 86 20.2 13.27 37.03
 879 87 19.03 14.52 37.54
 880 88 20.35 14.97 36.57
 881 1 30.71 14.97 24.18
 882 2 31.49 16.44 24.64
 883 3 32.897 16.22 25.18
 884 4 33.507 14.97 25.24
 885 5 32.907 13.75 24.8
 886 6 31.71 13.85 24.14
 887 7 31.52 13 22.97
 888 8 30.6 13.75 22.09
 889 9 30.25 14.99 22.81
 890 10 30.29 16.1 21.96
 891 11 30.98 17.37 22.4
 892 12 31.69 17.34 23.58
 893 13 32.987 17.97 23.71
 894 14 33.727 17.22 24.7
 895 15 35.017 17.05 24.33
 896 16 35.727 15.86 24.54
 897 17 34.977 14.78 24.96
 898 18 35.167 13.47 24.43
 899 19 33.927 12.82 24.35
 900 20 33.747 12.09 23.17
 901 21 32.467 12.07 22.46
 902 22 32.647 11.98 21.1
 903 23 31.857 12.69 20.28
 904 24 30.84 13.54 20.76
 905 25 30.84 14.71 19.92
 906 26 30.53 15.99 20.5
 907 27 31.327 17.1 19.96
 908 28 31.587 17.87 21.2
 909 29 32.847 18.47 21.27
 910 30 33.477 18.61 22.54
 911 31 34.877 18.43 22.27
 912 32 35.657 17.72 23.18
 913 33 36.737 16.85 22.7
 914 34 36.757 15.67 23.63
 915 35 36.977 14.44 23.04
 916 36 36.177 13.28 23.46
 917 37 35.927 12.53 22.3
 918 38 34.747 11.81 22.22
 919 39 34.097 11.69 20.88
 920 40 34.657 12.31 19.77
 921 41 33.797 13.06 18.81
 922 42 32.407 13.23 19.04
 923 43 31.727 14.49 18.78
 924 44 32.477 15.61 18.38
 925 45 32.227 16.89 18.95
 926 46 33.537 17.57 19.13
 927 47 33.787 18.37 20.19
 928 48 35.107 18.38 20.87
 929 49 36.037 17.5 20.45
 930 50 36.927 16.74 21.39
 931 51 37.087 15.4 20.82
 932 52 37.207 14.25 21.63
 933 53 36.547 13.09 21.13
 934 54 35.897 13 19.88
 935 55 35.857 14.18 19.01
 936 56 36.437 15.36 19.5
 937 57 35.767 16.6 19.3
 938 58 34.537 16.64 18.62
 939 59 33.897 15.43 18.14
 940 60 34.567 14.17 18.27
 941 61 30.26 15.88 25.19
 942 62 30.53 15.3 26.53
 943 63 30.81 16.24 27.56
 944 64 31.03 15.88 28.88
 945 65 31 14.5 29.14
 946 66 30.8 13.48 28.2
 947 67 25.75 16.78 22.49
 948 68 26.91 14.82 22.74
 949 69 30.57 13.92 26.9
 950 70 29 16.67 24.94
 951 71 27.87 15.69 25.13
 952 72 26.47 16.03 24.67
 953 73 26.38 16.03 23.16
 954 74 27.03 14.76 21.28
 955 75 30.77 17.24 27.27
 956 76 31.28 16.59 29.59
 957 77 31.26 14.24 30.09
 958 78 30.9 12.47 28.47
 959 79 30.42 13.13 26.25
 960 80 28.91 17.35 25.55
 961 81 28.85 16.92 23.93
 962 82 27.6 15.78 26.21
 963 83 28.09 14.81 24.99
 964 84 25.79 15.44 24.92
 965 85 26.13 16.93 24.66
 966 86 27.72 14.15 21.24
 967 87 27.57 15.68 21.15
 968 88 26.03 14.68 21.18
 969 1 9.49 8.93 22.43
 970 2 9.65 7.18 22.34
 971 3 10.79 6.71 21.54
 972 4 11.7 7.49 20.82
 973 5 11.59 8.94 20.97
 974 6 10.7 9.5 21.87
 975 7 11.11 10.64 22.64
 976 8 10.37 10.55 23.89
 977 9 9.44 9.45 23.79
 978 10 9.44 8.73 24.94
 979 11 9.63 7.25 24.87
 980 12 9.88 6.65 23.67
 981 13 10.77 5.54 23.58
 982 14 11.38 5.63 22.25
 983 15 12.7 5.29 22.22
 984 16 13.62 6.08 21.39
 985 17 13.06 7.13 20.64
 986 18 13.84 8.33 20.7
 987 19 12.92 9.45 20.88
 988 20 13.24 10.56 21.69
 989 21 12.3 11.21 22.56
 990 22 12.96 11.59 23.77
 991 23 12.35 11.52 25.01
 992 24 10.99 11.02 25.04
 993 25 10.89 10.22 26.27
 994 26 10.07 9.13 26.22
 995 27 10.68 7.97 26.9
 996 28 10.35 6.8 26.1
 997 29 11.25 5.79 25.98
 998 30 11.48 5.13 24.69
 999 31 12.89 4.76 24.59
 1000 32 13.46 4.77 23.34
 1001 33 14.78 5.35 23.26
 1002 34 14.93 6.1 22.01
 1003 35 15.61 7.26 22.07
 1004 36 15.11 8.37 21.32
 1005 37 15.44 9.55 22.16
 1006 38 14.52 10.67 22.31
 1007 39 14.34 11.33 23.58
 1008 40 15 10.84 24.67
 1009 41 14.37 10.79 25.96
 1010 42 13.02 11.2 26.14
 1011 43 12.16 10.34 26.95
 1012 44 12.66 9.22 27.51
 1013 45 11.9 7.97 27.62
 1014 46 12.86 6.85 27.47
 1015 47 12.5 5.68 26.75
 1016 48 13.48 5.08 25.86
 1017 49 14.73 5.69 25.75
 1018 50 15.35 5.77 24.45
 1019 51 16.07 7.04 24.45
 1020 52 16.23 7.74 23.31
 1021 53 16.18 9.2 23.33
 1022 54 15.99 9.79 24.58
 1023 55 15.92 8.98 25.79
 1024 56 15.99 7.63 25.72
 1025 57 15.14 6.82 26.55
 1026 58 14.14 7.44 27.4
 1027 59 14.07 8.9 27.46
 1028 60 14.92 9.66 26.68
 1029 61 8.51 7.92 21.89
 1030 62 8.56 7.91 20.37
 1031 63 8.7 6.73 19.59
 1032 64 8.74 6.76 18.21
 1033 65 8.53 7.95 17.5
 1034 66 8.34 9.15 18.28
 1035 67 3.7 7.29 19.98
 1036 68 5.12 9 19.14
 1037 69 8.38 9.1 19.68
 1038 70 7.26 7.86 22.72
 1039 71 6.11 7.34 21.85
 1040 72 5.26 8.52 21.44
 1041 73 4.63 8.1 20.11
 1042 74 4.62 8.89 17.8
 1043 75 8.89 5.76 20.05
 1044 76 8.94 5.86 17.82
 1045 77 8.48 7.96 16.47
 1046 78 8.12 10.07 17.89
 1047 79 8.22 9.98 20.14
 1048 80 7.15 7.29 23.45
 1049 81 6.67 8.86 22.81
 1050 82 5.55 7 22.68
 1051 83 6.47 6.47 21.38
 1052 84 4.53 8.92 21.97
 1053 85 5.83 9.16 20.85
 1054 86 5.1 9.66 17.41
 1055 87 3.64 9.2 17.86
 1056 88 4.71 7.89 17.63
 1057 1 19.88 23.17 30.68
 1058 2 19.72 21.45 30.58
 1059 3 18.28 21.21 30.46
 1060 4 17.34 22 29.9
 1061 5 17.53 23.44 29.81
 1062 6 18.71 23.97 30.32
 1063 7 18.55 25.07 31.2
 1064 8 19.49 24.9 32.26
 1065 9 20.14 23.62 32.04
 1066 10 20.58 22.86 33.06
 1067 11 20.52 21.39 33.06
 1068 12 19.99 20.8 31.95
 1069 13 18.96 19.87 32.21
 1070 14 17.9 20.1 31.24
 1071 15 16.6 19.8 31.5
 1072 16 15.56 20.64 30.99
 1073 17 15.94 21.74 30.25
 1074 18 15.18 22.97 30.37
 1075 19 16.2 24.04 30.25
 1076 20 16.12 25.18 31
 1077 21 17.34 25.69 31.59
 1078 22 17.09 26.27 32.88
 1079 23 18.08 26.07 33.88
 1080 24 19.27 25.38 33.56
 1081 25 19.68 24.51 34.64
 1082 26 20.23 23.28 34.43
 1083 27 19.94 22.15 35.29
 1084 28 20.08 21.01 34.42
 1085 29 19.15 19.95 34.6
 1086 30 18.51 19.44 33.44
 1087 31 17.14 19.15 33.81
 1088 32 16.19 19.35 32.82
 1089 33 14.93 19.95 33.07
 1090 34 14.5 20.8 32.03
 1091 35 13.81 21.99 32.14
 1092 36 14.22 23.12 31.38
 1093 37 14.11 24.3 32.23
 1094 38 15.1 25.25 32.07
 1095 39 15.69 25.92 33.19
 1096 40 15.39 25.53 34.5
 1097 41 16.4 25.39 35.54
 1098 42 17.71 25.59 35.19
 1099 43 18.75 24.62 35.69
 1100 44 18.43 23.56 36.52
 1101 45 19 22.3 36.25
 1102 46 18.07 21.22 36.42
 1103 47 18.06 20.13 35.63
 1104 48 16.84 19.59 35.09
 1105 49 15.68 20.23 35.38
 1106 50 14.75 20.44 34.35
 1107 51 14.07 21.68 34.63
 1108 52 13.67 22.46 33.51
 1109 53 13.87 23.89 33.58
 1110 54 14.46 24.46 34.67
 1111 55 14.9 23.69 35.79
 1112 56 14.68 22.34 35.73
 1113 57 15.67 21.41 36.25
 1114 58 16.87 21.92 36.75
 1115 59 17.04 23.38 36.81
 1116 60 16.06 24.25 36.31
 1117 61 20.62 22.23 29.72
 1118 62 20.12 22.2 28.35
 1119 63 19.63 21.07 27.61
 1120 64 19.29 21.26 26.25
 1121 65 19.42 22.47 25.6
 1122 66 19.8 23.63 26.31
 1123 67 24.18 23.96 32.89
 1124 68 24.25 21.82 32.86
 1125 69 20.14 23.47 27.68
 1126 70 22.15 21.96 30.08
 1127 71 22.86 23.3 30.23
 1128 72 24.24 22.78 30.78
 1129 73 24.21 22.93 32.26
 1130 74 24.14 21.73 34.27
 1131 75 19.46 20.25 28.11
 1132 76 18.77 20.52 25.72
 1133 77 19.1 22.61 24.65
 1134 78 19.9 24.5 25.9
 1135 79 20.39 24.43 28.16
 1136 80 22.39 21.58 29.18
 1137 81 22.02 21.06 30.69
 1138 82 23.2 23.81 29.33
 1139 83 22.63 23.89 30.94
 1140 84 24.67 23.65 30.59
 1141 85 24.7 22.04 30.32
 1142 86 24.88 22.11 34.65
 1143 87 24.47 20.7 34.22
 1144 88 23.09 21.78 34.39
 1145 1 13.45 29.58 32.71
 1146 2 13.23 31.29 32.81
 1147 3 11.88 31.6 33.34
 1148 4 11.09 30.78 34.13
 1149 5 11.35 29.3 34.08
 1150 6 12.39 28.78 33.33
 1151 7 12.05 27.64 32.48
 1152 8 12.72 27.87 31.23
 1153 9 13.4 29.14 31.28
 1154 10 13.62 29.88 30.14
 1155 11 13.49 31.38 30.2
 1156 12 13.19 31.99 31.46
 1157 13 12.15 33.02 31.4
 1158 14 11.28 32.69 32.54
 1159 15 9.94 32.88 32.68
 1160 16 9.12 32.06 33.5
 1161 17 9.67 31 34.12
 1162 18 8.98 29.68 34.19
 1163 19 9.98 28.7 34.05
 1164 20 9.74 27.56 33.26
 1165 21 10.8 27.07 32.39
 1166 22 10.26 26.51 31.17
 1167 23 10.93 26.66 30.04
 1168 24 12.13 27.47 30.09
 1169 25 12.29 28.11 28.89
 1170 26 12.96 29.36 28.96
 1171 27 12.56 30.46 28.23
 1172 28 12.75 31.67 29
 1173 29 11.74 32.63 29.03
 1174 30 11.36 33.32 30.27
 1175 31 9.96 33.57 30.4
 1176 32 9.23 33.37 31.59
 1177 33 8 32.71 31.61
 1178 34 7.88 31.89 32.76
 1179 35 7.22 30.7 32.68
 1180 36 7.8 29.54 33.34
 1181 37 7.46 28.32 32.54
 1182 38 8.53 27.4 32.46
 1183 39 8.82 26.8 31.21
 1184 40 8.05 27.13 30.08
 1185 41 8.86 27.32 28.9
 1186 42 10.21 27.13 28.89
 1187 43 11.13 27.97 28.11
 1188 44 10.67 29.05 27.4
 1189 45 11.37 30.36 27.51
 1190 46 10.39 31.42 27.5
 1191 47 10.54 32.52 28.31
 1192 48 9.42 33.03 29.14
 1193 49 8.17 32.53 29.1
 1194 50 7.46 32.25 30.4
 1195 51 6.71 31.02 30.26
 1196 52 6.7 30.23 31.36