********************************************************************************
*                       GENERAL UTILITY LATTICE PROGRAM                        *
*                                 Julian Gale                                  *
*                      Nanochemistry Research Institute                        *
*                           Department of Chemistry                            *
*                    Curtin University, Western Australia                      *
********************************************************************************
* Version = 4.0.7 * Last modified =  14th December 2012                        *
********************************************************************************
*  single       - perform a single point run                                   *
*  phonon       - calculate phonons for final geometry                         *
*  thermal      - calculate thermal conductivity for final geometry            *
********************************************************************************

  Job Started  at 15:53.29 24th February   2013                               

  Number of CPUs =     1


  Total number of configurations input =   1

********************************************************************************
*  Input for Configuration =   1                                               *
********************************************************************************

  Formula = Ar256                                                       

  Number of irreducible atoms/shells =     256


  Total number atoms/shells =     256

  Dimensionality = 3               :  Bulk   



  Cartesian lattice vectors (Angstroms) :

       21.483900    0.000000    0.000000
        0.000000   21.483900    0.000000
        0.000000    0.000000   21.483900

  Cell parameters (Angstroms/Degrees):

  a =      21.4839    alpha =  90.0000
  b =      21.4839    beta  =  90.0000
  c =      21.4839    gamma =  90.0000

  Initial cell volume =        9916.065040 Angs**3

  Temperature of configuration =  0.000     K 

  Pressure of configuration =         0.000 GPa 

  Fractional coordinates of asymmetric unit :

--------------------------------------------------------------------------------
   No.  Atomic       x           y          z         Charge      Occupancy
        Label      (Frac)      (Frac)     (Frac)        (e)         (Frac)  
--------------------------------------------------------------------------------
      1 Ar    c    0.498420    0.342613    0.995727     0.00000    1.000000    
      2 Ar    c    0.819032    0.630435    0.617365     0.00000    1.000000    
      3 Ar    c    0.643919    0.102986    0.041318     0.00000    1.000000    
      4 Ar    c    0.978398    0.073293    0.727684     0.00000    1.000000    
      5 Ar    c    0.700227    0.132449    0.200386     0.00000    1.000000    
      6 Ar    c    0.790117    0.538170    0.479568     0.00000    1.000000    
      7 Ar    c    0.676665    0.535955    0.356698     0.00000    1.000000    
      8 Ar    c    0.646405    0.849832    0.942096     0.00000    1.000000    
      9 Ar    c    0.107862    0.300388    0.268103     0.00000    1.000000    
     10 Ar    c    0.187631    0.550328    0.853076     0.00000    1.000000    
     11 Ar    c    0.851493    0.398066    0.170143     0.00000    1.000000    
     12 Ar    c    0.473396    0.074905    0.516666     0.00000    1.000000    
     13 Ar    c    0.968902    0.547936    0.309236     0.00000    1.000000    
     14 Ar    c    0.589004    0.957415    0.478824     0.00000    1.000000    
     15 Ar    c    0.939545    0.860672    0.110589     0.00000    1.000000    
     16 Ar    c    0.479173    0.407309    0.834620     0.00000    1.000000    
     17 Ar    c    0.866654    0.944405    0.364848     0.00000    1.000000    
     18 Ar    c    0.458981    0.088899    0.343327     0.00000    1.000000    
     19 Ar    c    0.807498    0.490377    0.886734     0.00000    1.000000    
     20 Ar    c    0.350193    0.427091    0.967385     0.00000    1.000000    
     21 Ar    c    0.237545    0.126725    0.926666     0.00000    1.000000    
     22 Ar    c    0.280481    0.732800    0.570045     0.00000    1.000000    
     23 Ar    c    0.924432    0.215421    0.872523     0.00000    1.000000    
     24 Ar    c    0.568970    0.077532    0.813684     0.00000    1.000000    
     25 Ar    c    0.686714    0.366573    0.264418     0.00000    1.000000    
     26 Ar    c    0.722890    0.334953    0.697648     0.00000    1.000000    
     27 Ar    c    0.774687    0.739335    0.937218     0.00000    1.000000    
     28 Ar    c    0.939862    0.031460    0.044624     0.00000    1.000000    
     29 Ar    c    0.601474    0.564474    0.060838     0.00000    1.000000    
     30 Ar    c    0.242228    0.320063    0.385470     0.00000    1.000000    
     31 Ar    c    0.126239    0.149847    0.333813     0.00000    1.000000    
     32 Ar    c    0.395487    0.628270    0.651088     0.00000    1.000000    
     33 Ar    c    0.576567    0.652987    0.209138     0.00000    1.000000    
     34 Ar    c    0.942571    0.029297    0.552176     0.00000    1.000000    
     35 Ar    c    0.812846    0.647862    0.792319     0.00000    1.000000    
     36 Ar    c    0.193091    0.817687    0.014319     0.00000    1.000000    
     37 Ar    c    0.354512    0.331788    0.104515     0.00000    1.000000    
     38 Ar    c    0.105055    0.989048    0.297683     0.00000    1.000000    
     39 Ar    c    0.562989    0.490474    0.477385     0.00000    1.000000    
     40 Ar    c    0.390280    0.687110    0.815062     0.00000    1.000000    
     41 Ar    c    0.682106    0.767631    0.636751     0.00000    1.000000    
     42 Ar    c    0.965388    0.377129    0.305644     0.00000    1.000000    
     43 Ar    c    0.258182    0.899585    0.510904     0.00000    1.000000    
     44 Ar    c    0.534344    0.535717    0.635755     0.00000    1.000000    
     45 Ar    c    0.961781    0.933992    0.831376     0.00000    1.000000    
     46 Ar    c    0.252232    0.182899    0.633316     0.00000    1.000000    
     47 Ar    c    0.446795    0.111637    0.051183     0.00000    1.000000    
     48 Ar    c    0.428311    0.460261    0.368806     0.00000    1.000000    
     49 Ar    c    0.418244    0.562053    0.233605     0.00000    1.000000    
     50 Ar    c    0.840159    0.890188    0.527428     0.00000    1.000000    
     51 Ar    c    0.654727    0.624598    0.531700     0.00000    1.000000    
     52 Ar    c    0.505681    0.805547    0.178151     0.00000    1.000000    
     53 Ar    c    0.025033    0.210325    0.470012     0.00000    1.000000    
     54 Ar    c    0.122766    0.072180    0.037809     0.00000    1.000000    
     55 Ar    c    0.267947    0.680207    0.114213     0.00000    1.000000    
     56 Ar    c    0.619455    0.936208    0.106645     0.00000    1.000000    
     57 Ar    c    0.363899    0.220406    0.505872     0.00000    1.000000    
     58 Ar    c    0.928961    0.627256    0.470231     0.00000    1.000000    
     59 Ar    c    0.117632    0.965248    0.764228     0.00000    1.000000    
     60 Ar    c    0.657232    0.747676    0.806627     0.00000    1.000000    
     61 Ar    c    0.450861    0.956367    0.110502     0.00000    1.000000    
     62 Ar    c    0.202760    0.679783    0.423071     0.00000    1.000000    
     63 Ar    c    0.926173    0.191413    0.610876     0.00000    1.000000    
     64 Ar    c    0.523075    0.608930    0.361841     0.00000    1.000000    
     65 Ar    c    0.820093    0.633619    0.335602     0.00000    1.000000    
     66 Ar    c    0.086279    0.367382    0.429321     0.00000    1.000000    
     67 Ar    c    0.910966    0.478084    0.028333     0.00000    1.000000    
     68 Ar    c    0.599812    0.787636    0.492215     0.00000    1.000000    
     69 Ar    c    0.612854    0.391340    0.113324     0.00000    1.000000    
     70 Ar    c    0.774073    0.734015    0.493369     0.00000    1.000000    
     71 Ar    c    0.877634    0.309980    0.016574     0.00000    1.000000    
     72 Ar    c    0.025771    0.237403    0.736519     0.00000    1.000000    
     73 Ar    c    0.869535    0.154522    0.157049     0.00000    1.000000    
     74 Ar    c    0.311009    0.598802    0.968618     0.00000    1.000000    
     75 Ar    c    0.758833    0.841868    0.084146     0.00000    1.000000    
     76 Ar    c    0.629090    0.079294    0.355843     0.00000    1.000000    
     77 Ar    c    0.307970    0.511523    0.116477     0.00000    1.000000    
     78 Ar    c    0.426141    0.806483    0.521460     0.00000    1.000000    
     79 Ar    c    0.822909    0.461528    0.322751     0.00000    1.000000    
     80 Ar    c    0.355969    0.046062    0.213793     0.00000    1.000000    
     81 Ar    c    0.136875    0.465390    0.288123     0.00000    1.000000    
     82 Ar    c    0.492722    0.655966    0.518756     0.00000    1.000000    
     83 Ar    c    0.225439    0.021572    0.632511     0.00000    1.000000    
     84 Ar    c    0.195512    0.186523    0.477972     0.00000    1.000000    
     85 Ar    c    0.420380    0.196510    0.204060     0.00000    1.000000    
     86 Ar    c    0.303982    0.854323    0.824776     0.00000    1.000000    
     87 Ar    c    0.863046    0.897560    0.963382     0.00000    1.000000    
     88 Ar    c    0.044296    0.729774    0.406486     0.00000    1.000000    
     89 Ar    c    0.540484    0.364041    0.680384     0.00000    1.000000    
     90 Ar    c    0.037344    0.073664    0.891007     0.00000    1.000000    
     91 Ar    c    0.564395    0.037349    0.652624     0.00000    1.000000    
     92 Ar    c    0.985664    0.059130    0.388745     0.00000    1.000000    
     93 Ar    c    0.541764    0.989588    0.956735     0.00000    1.000000    
     94 Ar    c    0.723002    0.389457    0.436365     0.00000    1.000000    
     95 Ar    c    0.919670    0.771936    0.840872     0.00000    1.000000    
     96 Ar    c    0.828653    0.402783    0.572801     0.00000    1.000000    
     97 Ar    c    0.753611    0.423768    0.033878     0.00000    1.000000    
     98 Ar    c    0.124281    0.798398    0.543030     0.00000    1.000000    
     99 Ar    c    0.674133    0.597042    0.886436     0.00000    1.000000    
    100 Ar    c    0.664777    0.704407    0.356998     0.00000    1.000000    
    101 Ar    c    0.150524    0.557985    0.142630     0.00000    1.000000    
    102 Ar    c    0.269624    0.980078    0.352520     0.00000    1.000000    
    103 Ar    c    0.224837    0.306071    0.985505     0.00000    1.000000    
    104 Ar    c    0.907563    0.625198    0.935556     0.00000    1.000000    
    105 Ar    c    0.375720    0.243717    0.941905     0.00000    1.000000    
    106 Ar    c    0.950749    0.517122    0.619250     0.00000    1.000000    
    107 Ar    c    0.237118    0.569254    0.562891     0.00000    1.000000    
    108 Ar    c    0.079271    0.948869    0.601190     0.00000    1.000000    
    109 Ar    c    0.616289    0.303302    0.826805     0.00000    1.000000    
    110 Ar    c    0.966133    0.205197    0.311294     0.00000    1.000000    
    111 Ar    c    0.198234    0.959630    0.917818     0.00000    1.000000    
    112 Ar    c    0.915113    0.993400    0.213000     0.00000    1.000000    
    113 Ar    c    0.747597    0.681869    0.189324     0.00000    1.000000    
    114 Ar    c    0.672122    0.610876    0.703918     0.00000    1.000000    
    115 Ar    c    0.007133    0.898477    0.452270     0.00000    1.000000    
    116 Ar    c    0.803066    0.491438    0.716229     0.00000    1.000000    
    117 Ar    c    0.977527    0.286210    0.159429     0.00000    1.000000    
    118 Ar    c    0.380658    0.933280    0.948631     0.00000    1.000000    
    119 Ar    c    0.714805    0.513990    0.183120     0.00000    1.000000    
    120 Ar    c    0.134221    0.228492    0.109538     0.00000    1.000000    
    121 Ar    c    0.091989    0.551278    0.424606     0.00000    1.000000    
    122 Ar    c    0.508767    0.210246    0.610764     0.00000    1.000000    
    123 Ar    c    0.224141    0.453362    0.703820     0.00000    1.000000    
    124 Ar    c    0.539674    0.690084    0.929594     0.00000    1.000000    
    125 Ar    c    0.633223    0.731720    0.067855     0.00000    1.000000    
    126 Ar    c    0.726958    0.035330    0.757041     0.00000    1.000000    
    127 Ar    c    0.124176    0.732069    0.704737     0.00000    1.000000    
    128 Ar    c    0.953123    0.768231    0.554708     0.00000    1.000000    
    129 Ar    c    0.485457    0.823324    0.843944     0.00000    1.000000    
    130 Ar    c    0.670288    0.283029    0.984398     0.00000    1.000000    
    131 Ar    c    0.393952    0.517425    0.521809     0.00000    1.000000    
    132 Ar    c    0.554252    0.934607    0.300959     0.00000    1.000000    
    133 Ar    c    0.251409    0.629076    0.721196     0.00000    1.000000    
    134 Ar    c    0.229965    0.917138    0.201668     0.00000    1.000000    
    135 Ar    c    0.945448    0.462177    0.455419     0.00000    1.000000    
    136 Ar    c    0.258325    0.591108    0.272235     0.00000    1.000000    
    137 Ar    c    0.993260    0.186760    0.024047     0.00000    1.000000    
    138 Ar    c    0.541229    0.188612    0.935636     0.00000    1.000000    
    139 Ar    c    0.073281    0.640168    0.564334     0.00000    1.000000    
    140 Ar    c    0.660141    0.817673    0.230234     0.00000    1.000000    
    141 Ar    c    0.563762    0.360860    0.375483     0.00000    1.000000    
    142 Ar    c    0.705514    0.162942    0.868599     0.00000    1.000000    
    143 Ar    c    0.351982    0.525114    0.821978     0.00000    1.000000    
    144 Ar    c    0.889252    0.781273    0.387004     0.00000    1.000000    
    145 Ar    c    0.496060    0.780147    0.356777     0.00000    1.000000    
    146 Ar    c    0.043405    0.519957    0.939848     0.00000    1.000000    
    147 Ar    c    0.614106    0.913321    0.779658     0.00000    1.000000    
    148 Ar    c    0.077599    0.946793    0.140291     0.00000    1.000000    
    149 Ar    c    0.780403    0.010631    0.097161     0.00000    1.000000    
    150 Ar    c    0.618123    0.444246    0.938391     0.00000    1.000000    
    151 Ar    c    0.578242    0.223413    0.277822     0.00000    1.000000    
    152 Ar    c    0.421995    0.941682    0.424464     0.00000    1.000000    
    153 Ar    c    0.136881    0.297525    0.586393     0.00000    1.000000    
    154 Ar    c    0.094979    0.563571    0.711496     0.00000    1.000000    
    155 Ar    c    0.943739    0.705370    0.233747     0.00000    1.000000    
    156 Ar    c    0.107668    0.463918    0.569082     0.00000    1.000000    
    157 Ar    c    0.257233    0.491121    0.411756     0.00000    1.000000    
    158 Ar    c    0.262168    0.253925    0.225946     0.00000    1.000000    
    159 Ar    c    0.134624    0.393667    0.865685     0.00000    1.000000    
    160 Ar    c    0.355305    0.760258    0.961925     0.00000    1.000000    
    161 Ar    c    0.342565    0.830492    0.111607     0.00000    1.000000    
    162 Ar    c    0.446699    0.963317    0.764479     0.00000    1.000000    
    163 Ar    c    0.891374    0.342993    0.723207     0.00000    1.000000    
    164 Ar    c    0.471991    0.539488    0.949958     0.00000    1.000000    
    165 Ar    c    0.185762    0.386243    0.142065     0.00000    1.000000    
    166 Ar    c    0.223191    0.714284    0.863568     0.00000    1.000000    
    167 Ar    c    0.017315    0.455513    0.161991     0.00000    1.000000    
    168 Ar    c    0.098596    0.232402    0.896676     0.00000    1.000000    
    169 Ar    c    0.538934    0.871955    0.631450     0.00000    1.000000    
    170 Ar    c    0.766444    0.592029    0.032696     0.00000    1.000000    
    171 Ar    c    0.650994    0.182092    0.698756     0.00000    1.000000    
    172 Ar    c    0.280987    0.002434    0.063624     0.00000    1.000000    
    173 Ar    c    0.097884    0.824459    0.850558     0.00000    1.000000    
    174 Ar    c    0.818762    0.187567    0.742295     0.00000    1.000000    
    175 Ar    c    0.717351    0.000000    0.929813     0.00000    1.000000    
    176 Ar    c    0.156411    0.853895    0.382336     0.00000    1.000000    
    177 Ar    c    0.411360    0.087033    0.882777     0.00000    1.000000    
    178 Ar    c    0.679560    0.467224    0.598453     0.00000    1.000000    
    179 Ar    c    0.707842    0.223793    0.400694     0.00000    1.000000    
    180 Ar    c    0.475994    0.224109    0.781604     0.00000    1.000000    
    181 Ar    c    0.050359    0.403463    0.719837     0.00000    1.000000    
    182 Ar    c    0.310455    0.191381    0.792305     0.00000    1.000000    
    183 Ar    c    0.877527    0.309268    0.436112     0.00000    1.000000    
    184 Ar    c    0.819888    0.271017    0.280243     0.00000    1.000000    
    185 Ar    c    0.723793    0.971942    0.255017     0.00000    1.000000    
    186 Ar    c    0.532869    0.712780    0.692393     0.00000    1.000000    
    187 Ar    c    0.088560    0.125291    0.604751     0.00000    1.000000    
    188 Ar    c    0.859830    0.060358    0.863172     0.00000    1.000000    
    189 Ar    c    0.404442    0.286843    0.352995     0.00000    1.000000    
    190 Ar    c    0.397275    0.103689    0.676251     0.00000    1.000000    
    191 Ar    c    0.700436    0.936189    0.615228     0.00000    1.000000    
    192 Ar    c    0.829319    0.833657    0.238558     0.00000    1.000000    
    193 Ar    c    0.445560    0.660820    0.083554     0.00000    1.000000    
    194 Ar    c    0.949311    0.529420    0.794628     0.00000    1.000000    
    195 Ar    c    0.300374    0.148260    0.347819     0.00000    1.000000    
    196 Ar    c    0.871909    0.564758    0.173118     0.00000    1.000000    
    197 Ar    c    0.786654    0.321834    0.862967     0.00000    1.000000    
    198 Ar    c    0.543286    0.071721    0.192996     0.00000    1.000000    
    199 Ar    c    0.388745    0.802731    0.688990     0.00000    1.000000    
    200 Ar    c    0.498466    0.828388    0.015367     0.00000    1.000000    
    201 Ar    c    0.749319    0.018488    0.457619     0.00000    1.000000    
    202 Ar    c    0.045534    0.920810    0.978575     0.00000    1.000000    
    203 Ar    c    0.457318    0.359895    0.521525     0.00000    1.000000    
    204 Ar    c    0.145749    0.648905    0.997230     0.00000    1.000000    
    205 Ar    c    0.777997    0.876289    0.818180     0.00000    1.000000    
    206 Ar    c    0.644618    0.462857    0.774659     0.00000    1.000000    
    207 Ar    c    0.198125    0.089048    0.194150     0.00000    1.000000    
    208 Ar    c    0.309505    0.061619    0.494938     0.00000    1.000000    
    209 Ar    c    0.820503    0.100244    0.311468     0.00000    1.000000    
    210 Ar    c    0.563510    0.486485    0.248576     0.00000    1.000000    
    211 Ar    c    0.191318    0.475249    0.001778     0.00000    1.000000    
    212 Ar    c    0.184197    0.291606    0.744795     0.00000    1.000000    
    213 Ar    c    0.870340    0.714772    0.078013     0.00000    1.000000    
    214 Ar    c    0.521302    0.578084    0.796164     0.00000    1.000000    
    215 Ar    c    0.560201    0.230756    0.110299     0.00000    1.000000    
    216 Ar    c    0.393050    0.455783    0.677931     0.00000    1.000000    
    217 Ar    c    0.371353    0.293236    0.666173     0.00000    1.000000    
    218 Ar    c    0.478637    0.351111    0.218254     0.00000    1.000000    
    219 Ar    c    0.310884    0.416521    0.257248     0.00000    1.000000    
    220 Ar    c    0.838498    0.787571    0.683833     0.00000    1.000000    
    221 Ar    c    0.745679    0.274182    0.128309     0.00000    1.000000    
    222 Ar    c    0.860323    0.146720    0.462303     0.00000    1.000000    
    223 Ar    c    0.378680    0.720377    0.245680     0.00000    1.000000    
    224 Ar    c    0.962605    0.672043    0.700054     0.00000    1.000000    
    225 Ar    c    0.809443    0.153920    0.000000     0.00000    1.000000    
    226 Ar    c    0.006346    0.854831    0.279120     0.00000    1.000000    
    227 Ar    c    0.287238    0.019885    0.787255     0.00000    1.000000    
    228 Ar    c    0.055051    0.358883    0.020211     0.00000    1.000000    
    229 Ar    c    0.390343    0.891482    0.264987     0.00000    1.000000    
    230 Ar    c    0.005102    0.614833    0.085439     0.00000    1.000000    
    231 Ar    c    0.789629    0.083612    0.609042     0.00000    1.000000    
    232 Ar    c    0.957857    0.381639    0.878476     0.00000    1.000000    
    233 Ar    c    0.320488    0.800772    0.388935     0.00000    1.000000    
    234 Ar    c    0.098104    0.644757    0.273850     0.00000    1.000000    
    235 Ar    c    0.315962    0.358676    0.819604     0.00000    1.000000    
    236 Ar    c    0.140119    0.024057    0.463156     0.00000    1.000000    
    237 Ar    c    0.053887    0.661281    0.847155     0.00000    1.000000    
    238 Ar    c    0.216703    0.760272    0.256964     0.00000    1.000000    
    239 Ar    c    0.387811    0.951955    0.604387     0.00000    1.000000    
    240 Ar    c    0.363614    0.635215    0.402324     0.00000    1.000000    
    241 Ar    c    0.000000    0.841998    0.699831     0.00000    1.000000    
    242 Ar    c    0.981549    0.345018    0.573211     0.00000    1.000000    
    243 Ar    c    0.152349    0.126757    0.768073     0.00000    1.000000    
    244 Ar    c    0.864689    0.954012    0.689405     0.00000    1.000000    
    245 Ar    c    0.280734    0.384520    0.548397     0.00000    1.000000    
    246 Ar    c    0.643175    0.128182    0.531477     0.00000    1.000000    
    247 Ar    c    0.225723    0.861082    0.675636     0.00000    1.000000    
    248 Ar    c    0.293504    0.172883    0.080046     0.00000    1.000000    
    249 Ar    c    0.010391    0.756934    0.986376     0.00000    1.000000    
    250 Ar    c    0.621335    0.313572    0.541494     0.00000    1.000000    
    251 Ar    c    0.529341    0.211496    0.439593     0.00000    1.000000    
    252 Ar    c    0.466214    0.471418    0.101119     0.00000    1.000000    
    253 Ar    c    0.086977    0.762804    0.142293     0.00000    1.000000    
    254 Ar    c    0.717021    0.864042    0.390249     0.00000    1.000000    
    255 Ar    c    0.032033    0.112601    0.184133     0.00000    1.000000    
    256 Ar    c    0.771019    0.244999    0.564665     0.00000    1.000000    
--------------------------------------------------------------------------------


  Brillouin zone sampling points :

--------------------------------------------------------------------------------
  Point number          x          y          z            Weight
--------------------------------------------------------------------------------
        1           0.000000   0.000000   0.000000         1.0000
--------------------------------------------------------------------------------


********************************************************************************
*  General input information                                                   *
********************************************************************************

  Species output for all configurations : 

--------------------------------------------------------------------------------
  Species    Type    Atomic    Atomic    Charge       Radii (Angs)     Library
                     Number     Mass       (e)     Cova   Ionic  VDW   Symbol
--------------------------------------------------------------------------------
    Ar       Core       18      39.95   0.000000   0.000  0.000  0.000          
--------------------------------------------------------------------------------


  Lattice summation method               =    Ewald          (3-D)
                                         =    Parry          (2-D)
                                         =    Saunders et al (1-D)
  Accuracy factor for lattice sums       =   12.000


  Time limit = Infinity

  Maximum range for interatomic potentials =    100000.000000 Angstroms

  General interatomic potentials :

--------------------------------------------------------------------------------
Atom  Types   Potential         A         B         C         D     Cutoffs(Ang)
  1     2                                                            Min    Max 
--------------------------------------------------------------------------------
Ar   c Ar   c Lennard 12  6 0.995E+05  64.4      0.00      0.00     0.000  8.500
--------------------------------------------------------------------------------

********************************************************************************
*  Output for configuration   1                                                *
********************************************************************************


  Components of energy : 

--------------------------------------------------------------------------------
  Interatomic potentials     =         -19.69423482 eV
  Monopole - monopole (real) =           0.00000000 eV
  Monopole - monopole (recip)=           0.00000000 eV
  Monopole - monopole (total)=           0.00000000 eV
--------------------------------------------------------------------------------
  Total lattice energy       =         -19.69423482 eV
--------------------------------------------------------------------------------
  Total lattice energy       =           -1900.1926 kJ/(mole unit cells)
--------------------------------------------------------------------------------


  Elastic Constant Matrix: (Units=GPa)

-------------------------------------------------------------------------------
  Indices      1         2         3         4         5         6    
-------------------------------------------------------------------------------
       1      3.3862    2.2967    1.9120   -0.1483    0.0528   -0.0623
       2      2.2967    3.7132    1.8664   -0.0649   -0.0715    0.2468
       3      1.9120    1.8664    3.4888    0.2074    0.0732    0.0729
       4     -0.1483   -0.0649    0.2074    0.5493   -0.0062   -0.0765
       5      0.0528   -0.0715    0.0732   -0.0062    0.6989    0.0830
       6     -0.0623    0.2468    0.0729   -0.0765    0.0830    0.6703
-------------------------------------------------------------------------------


  Elastic Compliance Matrix: (Units=1/GPa)

-------------------------------------------------------------------------------
  Indices      1         2         3         4         5         6    
-------------------------------------------------------------------------------
       1    0.628619 -0.300204 -0.201288  0.241064 -0.082083  0.228510
       2   -0.300204  0.530955 -0.116996 -0.004151  0.115988 -0.225497
       3   -0.201288 -0.116996  0.476711 -0.255806 -0.042875 -0.051343
       4    0.241064 -0.004151 -0.255806  2.021062 -0.007421  0.283261
       5   -0.082083  0.115988 -0.042875 -0.007421  1.480589 -0.229905
       6    0.228510 -0.225497 -0.051343  0.283261 -0.229905  1.662596
-------------------------------------------------------------------------------

  Mechanical properties :

-------------------------------------------------------------------------------
  Convention :                    Reuss         Voigt         Hill
-------------------------------------------------------------------------------
  Bulk  Modulus (GPa)     =       2.50432       2.52649       2.51540
  Shear Modulus (GPa)     =       0.61195       0.68457       0.64826
-------------------------------------------------------------------------------
  Velocity S-wave (km/s)  =       0.59775       0.63222       0.61523
  Velocity P-wave (km/s)  =       1.39235       1.41708       1.40477
-------------------------------------------------------------------------------
  Compressibility (1/GPa) =    0.39931061
-------------------------------------------------------------------------------
  Stress axis :                     x             y             z
-------------------------------------------------------------------------------
  Youngs Moduli (GPa)     =       1.59079       1.88340       2.09771
-------------------------------------------------------------------------------
  Poissons Ratio (x)      =                     0.56540       0.42224
  Poissons Ratio (y)      =       0.47756                     0.24542
  Poissons Ratio (z)      =       0.32021       0.22035
-------------------------------------------------------------------------------


  Piezoelectric Strain Matrix: (Units=C/m**2)

-------------------------------------------------------------------------------
  Indices      1         2         3         4         5         6    
-------------------------------------------------------------------------------
       x    -0.00000  -0.00000  -0.00000  -0.00000  -0.00000  -0.00000
       y    -0.00000  -0.00000  -0.00000  -0.00000  -0.00000  -0.00000
       z    -0.00000  -0.00000  -0.00000  -0.00000  -0.00000  -0.00000
-------------------------------------------------------------------------------


  Piezoelectric Stress Matrix: (Units=10**-11 C/N)

-------------------------------------------------------------------------------
  Indices      1         2         3         4         5         6    
-------------------------------------------------------------------------------
       x     0.00000   0.00000   0.00000   0.00000   0.00000   0.00000
       y     0.00000   0.00000   0.00000   0.00000   0.00000   0.00000
       z     0.00000   0.00000   0.00000   0.00000   0.00000   0.00000
-------------------------------------------------------------------------------


  Static dielectric constant tensor : 

-------------------------------------------------------------------------------
              x         y         z
-------------------------------------------------------------------------------
       x     1.00000   0.00000   0.00000
       y     0.00000   1.00000   0.00000
       z     0.00000   0.00000   1.00000
--------------------------------------------------------------------------------

  Static refractive indices : 

-------------------------------------------------------------------------------
    1 =    1.00000      2 =    1.00000      3 =    1.00000
-------------------------------------------------------------------------------


  Phonon Calculation : 

  Number of k points for this configuration =        1

--------------------------------------------------------------------------------
  K point      1 =   0.000000  0.000000  0.000000  Weight =    1.000
--------------------------------------------------------------------------------

 Frequencies (cm-1) : 

   -0.00   -0.00    0.00    3.25    5.19    5.46    5.71    6.02    6.41
    6.80    7.32    7.67    7.98    8.15    8.22    8.60    8.87    9.09
    9.23    9.36    9.45    9.67    9.89   10.01   10.19   10.39   10.47
   10.57   10.89   11.22   11.36   11.38   11.57   11.70   11.80   11.90
   11.97   12.10   12.30   12.50   12.68   12.75   12.89   13.05   13.10
   13.18   13.39   13.61   13.63   13.79   13.84   13.93   14.15   14.22
   14.29   14.40   14.57   14.61   14.79   14.85   14.94   15.06   15.14
   15.34   15.40   15.54   15.61   15.89   15.90   16.10   16.23   16.34
   16.44   16.48   16.57   16.82   17.00   17.04   17.08   17.15   17.28
   17.38   17.41   17.59   17.65   17.71   17.81   17.85   17.97   18.10
   18.21   18.27   18.39   18.42   18.60   18.66   18.74   18.93   19.06
   19.13   19.17   19.28   19.31   19.41   19.49   19.57   19.71   19.73
   19.79   19.94   20.00   20.10   20.20   20.22   20.36   20.52   20.58
   20.62   20.65   20.77   20.85   20.95   21.06   21.13   21.20   21.25
   21.32   21.52   21.58   21.64   21.66   21.80   21.87   21.97   22.08
   22.09   22.16   22.23   22.40   22.48   22.58   22.61   22.67   22.72
   22.86   22.90   23.05   23.10   23.15   23.16   23.28   23.38   23.44
   23.55   23.60   23.64   23.64   23.76   23.88   23.99   24.02   24.09
   24.18   24.29   24.33   24.42   24.46   24.58   24.68   24.72   24.78
   24.90   24.98   25.03   25.04   25.08   25.19   25.31   25.38   25.42
   25.49   25.53   25.63   25.70   25.84   25.97   26.00   26.20   26.21
   26.22   26.29   26.31   26.42   26.46   26.54   26.60   26.64   26.70
   26.87   26.91   26.99   27.04   27.12   27.21   27.23   27.35   27.44
   27.51   27.61   27.66   27.76   27.84   27.89   27.95   28.00   28.08
   28.14   28.19   28.20   28.29   28.38   28.46   28.55   28.59   28.63
   28.80   28.89   28.93   28.94   29.02   29.09   29.20   29.21   29.27
   29.37   29.40   29.57   29.66   29.73   29.77   29.90   29.92   29.97
   30.02   30.19   30.28   30.35   30.43   30.45   30.52   30.55   30.63
   30.72   30.81   30.90   30.90   30.99   31.06   31.09   31.16   31.26
   31.32   31.38   31.45   31.55   31.61   31.68   31.78   31.88   31.89
   31.98   32.00   32.10   32.14   32.21   32.27   32.44   32.48   32.51
   32.60   32.65   32.78   32.86   33.00   33.02   33.05   33.07   33.12
   33.27   33.33   33.41   33.47   33.58   33.62   33.67   33.80   33.83
   33.86   33.95   33.95   34.06   34.08   34.20   34.30   34.35   34.44
   34.50   34.58   34.61   34.74   34.76   34.85   34.89   34.97   35.05
   35.08   35.13   35.20   35.23   35.27   35.37   35.49   35.51   35.55
   35.70   35.74   35.84   35.85   35.90   36.00   36.02   36.15   36.17
   36.27   36.36   36.42   36.47   36.51   36.61   36.64   36.74   36.78
   36.92   36.98   37.00   37.08   37.12   37.17   37.25   37.32   37.44
   37.54   37.62   37.70   37.77   37.86   37.98   38.04   38.10   38.18
   38.22   38.30   38.42   38.44   38.52   38.54   38.61   38.69   38.73
   38.77   38.90   38.91   38.98   39.12   39.13   39.24   39.26   39.31
   39.44   39.51   39.68   39.79   39.87   39.90   39.94   40.06   40.08
   40.16   40.19   40.26   40.32   40.38   40.47   40.47   40.62   40.68
   40.80   40.84   40.87   41.09   41.16   41.21   41.24   41.30   41.32
   41.39   41.48   41.56   41.65   41.78   41.80   41.84   41.93   41.97
   42.02   42.08   42.22   42.26   42.35   42.41   42.44   42.52   42.62
   42.71   42.75   42.85   42.90   42.95   42.95   43.05   43.09   43.12
   43.20   43.33   43.39   43.47   43.51   43.67   43.78   43.83   43.92
   43.97   44.04   44.10   44.25   44.27   44.37   44.42   44.49   44.60
   44.73   44.76   44.85   44.89   44.94   45.00   45.04   45.25   45.34
   45.37   45.45   45.48   45.51   45.64   45.66   45.74   45.90   45.93
   45.99   46.08   46.17   46.23   46.28   46.36   46.45   46.58   46.62
   46.66   46.72   46.77   46.94   46.95   47.01   47.10   47.19   47.32
   47.33   47.40   47.48   47.56   47.73   47.75   47.82   47.86   47.99
   48.03   48.10   48.16   48.36   48.37   48.45   48.49   48.53   48.71
   48.84   48.92   48.97   49.01   49.10   49.18   49.19   49.35   49.37
   49.48   49.55   49.67   49.69   49.71   49.83   49.92   50.01   50.06
   50.13   50.26   50.28   50.37   50.42   50.53   50.56   50.73   50.81
   50.87   50.99   51.00   51.06   51.15   51.20   51.36   51.46   51.49
   51.53   51.64   51.73   51.90   51.96   52.00   52.06   52.16   52.27
   52.33   52.46   52.49   52.56   52.66   52.69   52.80   52.85   52.95
   53.00   53.03   53.16   53.27   53.34   53.47   53.51   53.61   53.66
   53.83   53.98   53.99   54.04   54.17   54.33   54.40   54.45   54.53
   54.61   54.72   54.75   54.77   54.97   55.01   55.15   55.16   55.24
   55.42   55.43   55.59   55.66   55.69   55.73   55.74   55.83   55.95
   56.03   56.19   56.24   56.28   56.39   56.45   56.51   56.60   56.74
   56.84   56.92   57.11   57.23   57.29   57.42   57.51   57.66   57.71
   57.77   57.86   57.95   58.01   58.04   58.07   58.18   58.26   58.38
   58.49   58.67   58.70   58.82   58.96   59.07   59.07   59.16   59.19
   59.38   59.48   59.56   59.59   59.66   59.72   59.97   59.98   60.06
   60.12   60.22   60.31   60.45   60.50   60.53   60.70   60.74   60.79
   60.90   61.03   61.13   61.21   61.26   61.29   61.41   61.48   61.56
   61.69   61.75   61.85   62.04   62.07   62.16   62.20   62.37   62.54
   62.58   62.70   62.82   62.87   63.01   63.11   63.21   63.28   63.39
   63.47   63.55   63.63   63.78   63.86   63.95   64.01   64.10   64.21
   64.27   64.37   64.47   64.49   64.65   64.68   64.85   65.06   65.13
   65.27   65.41   65.50   65.59   65.71   65.89   66.04   66.18   66.33
   66.39   66.47   66.57   66.73   66.81   66.96   67.02   67.25   67.40
   67.51   67.74   67.81   67.89   67.97   68.13   68.31   68.43   68.83
   68.93   68.99   69.21   69.28   69.45   69.57   69.82   69.85   70.03
   70.11   70.20   70.39   70.53   70.61   70.88   71.10   71.31   71.68
   71.80   71.97   72.27   72.79   72.86   73.37   73.41   73.68   73.82
   74.03   74.15   74.30   74.64   75.29   75.42   76.21   76.34   76.59
   76.85   76.91   77.44   77.67   78.03   78.30   78.51   79.47   81.23
   82.44   82.85   86.35



  Thermal conductivity: 

  Lorentzian broadening factor =     0.1089

--------------------------------------------------------------------------------
 Mode    : Frequency (cm-1)         Thermal conductivity                        
--------------------------------------------------------------------------------
     4        3.2488           28723461.84722688
     5        5.1862            7063559.12418487
     6        5.4569            6322651.39495002
     7        5.7083            6233909.19101351
     8        6.0151            5346785.73987317
     9        6.4081            5268753.40169972
    10        6.8003            4399088.32258912
    11        7.3188            3606774.85736248
    12        7.6710            3430686.06106252
    13        7.9783            3217462.34804788
    14        8.1475            3201409.29642190
    15        8.2191            3363560.43798098
    16        8.5986            2960897.54929296
    17        8.8738            2639424.42100785
    18        9.0923            2889377.90669460
    19        9.2290            2619828.32574037
    20        9.3613            2594122.04479021
    21        9.4507            2627263.90461269
    22        9.6690            2491270.18528948
    23        9.8863            2394042.93792556
    24       10.0113            2478121.29619676
    25       10.1881            2440020.58727829
    26       10.3873            2350953.61836078
    27       10.4680            2268670.20557378
    28       10.5745            2179197.07099387
    29       10.8945            2006404.00894202
    30       11.2211            1962904.28357015
    31       11.3569            1898589.88094166
    32       11.3839            1845784.61024106
    33       11.5723            2138153.65382925
    34       11.6977            1927050.74764149
    35       11.7997            1882466.18680203
    36       11.8976            1878919.04189067
    37       11.9702            1873519.76289962
    38       12.1049            1956868.64533728
    39       12.2953            1887264.46337347
    40       12.5022            1816982.11010862
    41       12.6796            1819880.15828415
    42       12.7482            1813154.73377901
    43       12.8859            1711031.20968087
    44       13.0523            1690630.68951601
    45       13.0979            1817760.22833281
    46       13.1829            1628304.65945024
    47       13.3850            1779536.24107647
    48       13.6068            1573626.53637742
    49       13.6327            1684111.24788737
    50       13.7874            1639268.71661307
    51       13.8422            1767580.22918569
    52       13.9318            1675850.14816820
    53       14.1487            1683947.14531981
    54       14.2196            1540183.37369978
    55       14.2912            1689023.02811734
    56       14.4047            1541566.63734801
    57       14.5736            1644007.93760505
    58       14.6063            1580372.62199408
    59       14.7859            1581702.10544023
    60       14.8498            1706528.68640983
    61       14.9445            1446188.03529152
    62       15.0550            1502329.99621504
    63       15.1376            1401429.68887670
    64       15.3363            1503700.35966461
    65       15.3974            1530654.35882785
    66       15.5421            1456078.11453217
    67       15.6118            1507887.04366552
    68       15.8944            1515754.09813883
    69       15.8990            1585202.87042740
    70       16.0994            1563805.22897079
    71       16.2330            1359376.51239569
    72       16.3434            1312430.88230162
    73       16.4385            1533896.45307352
    74       16.4812            1344880.89857544
    75       16.5685            1565288.79279086
    76       16.8152            1350761.19221148
    77       16.9997            1475650.27267044
    78       17.0352            1495511.03542002
    79       17.0825            1449577.68729175
    80       17.1520            1387652.73616233
    81       17.2791            1349022.34146948
    82       17.3799            1461853.56948442
    83       17.4122            1430720.29934377
    84       17.5865            1354781.16362428
    85       17.6470            1391406.15481090
    86       17.7104            1302758.02620323
    87       17.8077            1377338.90032680
    88       17.8513            1469120.58022496
    89       17.9730            1317348.45900380
    90       18.1029            1356407.32726144
    91       18.2112            1350270.22198896
    92       18.2749            1337232.68966492
    93       18.3894            1260666.49700266
    94       18.4176            1301097.68323802
    95       18.5997            1262991.96451879
    96       18.6645            1278964.45742981
    97       18.7388            1386934.41977359
    98       18.9320            1293545.24494973
    99       19.0626            1376978.08688007
   100       19.1274            1303368.41553166
   101       19.1678            1333701.26252991
   102       19.2801            1302745.45107295
   103       19.3069            1146181.11871273
   104       19.4110            1300302.44910368
   105       19.4869            1241706.32736878
   106       19.5671            1312354.95718724
   107       19.7124            1313642.15570909
   108       19.7309            1292595.43396884
   109       19.7918            1280966.78750215
   110       19.9450            1285074.02047423
   111       19.9973            1320783.87428413
   112       20.1034            1237603.41608650
   113       20.1950            1272840.60553843
   114       20.2212            1242356.12543451
   115       20.3564            1190896.79305806
   116       20.5182            1209481.13199454
   117       20.5831            1212154.51337131
   118       20.6240            1427928.43835571
   119       20.6460            1135621.54699486
   120       20.7672            1331914.18524460
   121       20.8527            1157143.93188613
   122       20.9519            1265827.58958062
   123       21.0598            1413480.65827181
   124       21.1288            1149120.99746866
   125       21.1991            1235406.86427599
   126       21.2469            1205137.68605938
   127       21.3232            1349857.96591045
   128       21.5224            1244176.87797328
   129       21.5785            1154340.33340514
   130       21.6364            1152110.05961291
   131       21.6650            1232756.76906652
   132       21.8046            1173870.82098234
   133       21.8738            1162219.04732571
   134       21.9661            1229623.98913088
   135       22.0764            1122047.80265037
   136       22.0864            1260914.31182371
   137       22.1637            1099332.74132686
   138       22.2259            1309900.53382149
   139       22.3991            1270624.23234285
   140       22.4808            1136946.26307265
   141       22.5815            1239413.20188357
   142       22.6103            1374373.66570443
   143       22.6690            1349301.98698285
   144       22.7172            1314952.59723369
   145       22.8609            1236947.32480923
   146       22.9021            1348676.73823634
   147       23.0461            1153875.51095630
   148       23.1040            1191007.19965010
   149       23.1496            1179075.34656163
   150       23.1569            1141001.77027408
   151       23.2848            1329898.89405955
   152       23.3782            1149676.36841349
   153       23.4443            1198936.99922682
   154       23.5456            1113172.81738928
   155       23.5951            1326510.70589874
   156       23.6370            1130514.96251691
   157       23.6399            1268139.51483728
   158       23.7569            1065678.06473830
   159       23.8837            1128525.80175233
   160       23.9876            1146777.73037773
   161       24.0156            1277077.17946903
   162       24.0858            1224775.11810429
   163       24.1833            1196484.53898373
   164       24.2859            1210032.71280302
   165       24.3309            1145468.86375599
   166       24.4181            1110922.45915912
   167       24.4574            1267814.88441342
   168       24.5849            1234125.60496624
   169       24.6815            1115480.06005737
   170       24.7213            1205720.72247415
   171       24.7832            1104056.08087902
   172       24.9036            1053380.68300395
   173       24.9811            1052220.60361445
   174       25.0322            1122790.89445125
   175       25.0444            1109051.40148587
   176       25.0766            1168763.12312642
   177       25.1894            1326632.30668448
   178       25.3102            1153357.11007184
   179       25.3846            1136954.16006532
   180       25.4218            1166360.87790988
   181       25.4905            1090220.37841731
   182       25.5279            1194525.88694462
   183       25.6338            1178536.20413867
   184       25.6996            1207726.50069984
   185       25.8366            1091439.39668286
   186       25.9713            1169769.01914556
   187       26.0011            1146379.04539490
   188       26.1977            1113428.66623536
   189       26.2078            1087596.64911016
   190       26.2240            1045806.82879131
   191       26.2857            1065422.25058605
   192       26.3066            1038851.22128202
   193       26.4219            1143351.02744277
   194       26.4617            1095233.44245129
   195       26.5380            1368544.46051817
   196       26.5985            1127114.43037526
   197       26.6392            1145693.68725015
   198       26.7028            1043595.65606460
   199       26.8655            1043713.86602438
   200       26.9108            1079280.37989267
   201       26.9899            1016176.31114665
   202       27.0398            1049041.79774653
   203       27.1191            1177146.75755851
   204       27.2053            1113888.92777321
   205       27.2303            1158953.93117918
   206       27.3496            1075603.76522350
   207       27.4361            1129876.46185768
   208       27.5076            1022042.79340544
   209       27.6103            1004398.11441022
   210       27.6570            1076285.39187235
   211       27.7578            1142064.96928707
   212       27.8350            1033211.82084011
   213       27.8885            1097815.38500499
   214       27.9485            1099118.39319801
   215       27.9985            1130665.65174174
   216       28.0821            1053737.28890531
   217       28.1414             958423.91697457
   218       28.1934            1131757.80274057
   219       28.2043            1071881.89823905
   220       28.2862            1020229.58193443
   221       28.3826            1069024.74981488
   222       28.4645            1036591.57427457
   223       28.5526            1004681.71426587
   224       28.5888            1052618.10366007
   225       28.6332            1124889.67948994
   226       28.7980            1002859.60135532
   227       28.8898            1085356.66978101
   228       28.9274            1034526.90337481
   229       28.9403            1056312.53864646
   230       29.0166            1096092.73159620
   231       29.0895            1069767.43053222
   232       29.1962            1125323.81763222
   233       29.2123            1182854.22371998
   234       29.2717            1111465.75192756
   235       29.3733            1011235.65085596
   236       29.4032            1061740.36507038
   237       29.5685            1100669.01576644
   238       29.6582            1049304.82085254
   239       29.7289            1004252.66364417
   240       29.7695            1055316.88797742
   241       29.8955            1141960.93176291
   242       29.9228            1098302.68984491
   243       29.9706             992527.93678059
   244       30.0227            1017985.18561131
   245       30.1892            1121613.78049794
   246       30.2759            1138725.97493144
   247       30.3495             968359.31000141
   248       30.4271            1049844.11383288
   249       30.4496             932819.91263131
   250       30.5198            1114949.39717365
   251       30.5456            1060347.10036750
   252       30.6334            1045123.61986946
   253       30.7227            1034122.60656317
   254       30.8145            1107043.51290896
   255       30.8959            1116054.11180602
   256       30.9017            1014924.83746834
   257       30.9928            1164280.63853475
   258       31.0650            1010516.40747022
   259       31.0914            1102065.03802260
   260       31.1594            1128192.31016685
   261       31.2568            1012554.85619538
   262       31.3163            1013559.15581133
   263       31.3768            1160619.25286837
   264       31.4503            1131437.14957972
   265       31.5510            1119409.16211753
   266       31.6089            1022137.27535094
   267       31.6755            1063735.93544862
   268       31.7802            1150030.23736121
   269       31.8783            1119903.43796404
   270       31.8945            1092394.55957132
   271       31.9774            1060077.11478739
   272       31.9952            1039610.91537378
   273       32.0959             938714.75610980
   274       32.1445            1000613.66378497
   275       32.2134             986327.49767437
   276       32.2656            1057986.79676453
   277       32.4377            1078423.08697218
   278       32.4766            1149150.30493237
   279       32.5086             996170.59715855
   280       32.6045            1094731.77130710
   281       32.6536            1047672.20563577
   282       32.7780             933129.28763714
   283       32.8627            1058161.42552571
   284       33.0047            1089513.05365093
   285       33.0164            1152532.73890975
   286       33.0491            1058424.45113278
   287       33.0667            1065905.05478122
   288       33.1232            1084564.39961781
   289       33.2723             974192.04692162
   290       33.3317             980576.40185623
   291       33.4054             958608.03704505
   292       33.4711            1063034.52605298
   293       33.5755            1049044.18428650
   294       33.6159            1019202.75964413
   295       33.6668             919296.31378896
   296       33.8014            1026629.57733932
   297       33.8258            1048642.07676300
   298       33.8623             999032.58381571
   299       33.9457            1032902.99042129
   300       33.9497            1007805.71121688
   301       34.0567             998201.81555577
   302       34.0816             942243.55594546
   303       34.2042             936481.34436933
   304       34.2978             985131.65688878
   305       34.3492            1033223.70110072
   306       34.4352            1126816.01559079
   307       34.5015            1010221.27221710
   308       34.5805            1062473.71847864
   309       34.6114             950218.06607991
   310       34.7365            1058387.94538657
   311       34.7607            1067424.34732719
   312       34.8497             996974.34299727
   313       34.8864             933226.71266331
   314       34.9719            1025132.14130256
   315       35.0473            1052866.95725341
   316       35.0825            1002685.14836121
   317       35.1323            1021953.63473001
   318       35.1951            1023487.60183010
   319       35.2321            1126770.20072411
   320       35.2722             939355.55380482
   321       35.3743             955861.83915519
   322       35.4919             975560.88881340
   323       35.5083             905836.90873739
   324       35.5454            1073857.46423925
   325       35.7032             968174.67111649
   326       35.7410            1009844.25704897
   327       35.8388             945433.96964301
   328       35.8547             997136.78428563
   329       35.9014             994671.15381781
   330       35.9983             985559.39773790
   331       36.0235             877639.28280055
   332       36.1487             996443.04816214
   333       36.1703             973132.91349322
   334       36.2732            1001070.24419217
   335       36.3551            1002333.78051312
   336       36.4212             998232.55790860
   337       36.4657            1110982.46180755
   338       36.5098            1025775.72508503
   339       36.6135             984075.88934688
   340       36.6387            1043365.18085082
   341       36.7363             977830.20784067
   342       36.7785             921329.94314867
   343       36.9195            1004567.89342237
   344       36.9794            1079050.78083374
   345       36.9994            1003248.94292851
   346       37.0792             991633.23970029
   347       37.1229             978694.87438434
   348       37.1727             955278.88243646
   349       37.2460             964026.37912821
   350       37.3160            1027356.36273602
   351       37.4434             932930.22107715
   352       37.5416            1007522.99979052
   353       37.6196             977570.63687877
   354       37.6978             960685.79176939
   355       37.7698            1076237.26461845
   356       37.8622             958013.99238405
   357       37.9751             940712.94760904
   358       38.0409             999333.25329767
   359       38.1018             972087.15678760
   360       38.1810             833348.70804858
   361       38.2225             995429.19344649
   362       38.2986            1018457.93151042
   363       38.4208             971025.23942676
   364       38.4370            1061450.68461519
   365       38.5204             927031.39095523
   366       38.5381             974994.37566024
   367       38.6125             867588.87431312
   368       38.6856             989833.62264452
   369       38.7279             961799.44430722
   370       38.7695             909725.11541995
   371       38.9003             978099.32774498
   372       38.9111            1017756.31278447
   373       38.9817            1020912.52700495
   374       39.1245             922002.60232735
   375       39.1298             977131.94078611
   376       39.2433             986588.70500311
   377       39.2621            1008462.24255702
   378       39.3149            1011829.03634804
   379       39.4395             918980.54329179
   380       39.5074             924081.25918555
   381       39.6755             937415.10831207
   382       39.7945             978051.96725567
   383       39.8708             946103.49912064
   384       39.8955             912826.69172654
   385       39.9389            1015969.46994129
   386       40.0576             986177.45419806
   387       40.0817             898033.02321101
   388       40.1610             892264.83344387
   389       40.1927            1086505.45385746
   390       40.2620             935537.97121864
   391       40.3201             975512.48210787
   392       40.3792             961702.03622421
   393       40.4676             911600.62176177
   394       40.4716             969296.28061260
   395       40.6225             990374.57939317
   396       40.6823             887165.20504246
   397       40.7991             988771.91644616
   398       40.8397             944930.13328424
   399       40.8741             954897.44171016
   400       41.0891             919712.01136105
   401       41.1617             919922.93590596
   402       41.2118             934493.98401986
   403       41.2393             920996.27712374
   404       41.2962             955608.82719154
   405       41.3202            1010848.07182174
   406       41.3948             981622.28319096
   407       41.4769             895069.06991740
   408       41.5587            1034773.16095437
   409       41.6457             950050.00789436
   410       41.7818             969861.93620171
   411       41.7951             915912.67438280
   412       41.8410            1004050.16996266
   413       41.9348             879863.08469795
   414       41.9669             962254.20788205
   415       42.0221             916290.04305748
   416       42.0820             823870.40387935
   417       42.2245             892943.50720396
   418       42.2554             930942.07242264
   419       42.3472             871328.84677448
   420       42.4055             919669.94429752
   421       42.4368             862480.58035816
   422       42.5196             928675.33746144
   423       42.6156             938806.48883464
   424       42.7140             875121.36833066
   425       42.7546             887869.33992033
   426       42.8507             943600.39675287
   427       42.9001             980739.81211722
   428       42.9508             984313.41413680
   429       42.9546             851913.49036741
   430       43.0544             847411.02296183
   431       43.0930             855436.10904254
   432       43.1197             862531.10601017
   433       43.1964             872439.60434823
   434       43.3316             878226.13068016
   435       43.3853             894736.17615196
   436       43.4665             942690.30059201
   437       43.5142             819138.50977873
   438       43.6695             916033.69450686
   439       43.7761             905138.83496668
   440       43.8322             911979.17557544
   441       43.9238             911208.96277644
   442       43.9743             887031.33390772
   443       44.0367             980414.14385396
   444       44.1035             829620.30453466
   445       44.2488             876132.57094752
   446       44.2737             974916.36651203
   447       44.3681             883291.19871026
   448       44.4200             819336.48678730
   449       44.4857             901621.24468332
   450       44.5966             898405.43211571
   451       44.7314             880451.66978998
   452       44.7645             852278.96877943
   453       44.8508             814654.23530788
   454       44.8909             947212.08342649
   455       44.9423             917266.25442926
   456       45.0018             877067.23923584
   457       45.0420             835580.10781334
   458       45.2462             909917.79302733
   459       45.3352             871434.85141324
   460       45.3652             896405.31339189
   461       45.4458             797617.57202878
   462       45.4823             896415.38221634
   463       45.5126             916712.18109878
   464       45.6411             806309.33113600
   465       45.6551             820092.96941689
   466       45.7436             804390.27729232
   467       45.8951             858372.59747161
   468       45.9258             904190.92453756
   469       45.9862             850618.20044419
   470       46.0811             837908.63742221
   471       46.1711             915333.94928994
   472       46.2261             797122.68501848
   473       46.2774             817386.89354428
   474       46.3631             874410.46821903
   475       46.4465             823854.19710205
   476       46.5795             769108.54960069
   477       46.6214             795422.09702670
   478       46.6608             843899.50699378
   479       46.7184             782290.68711051
   480       46.7704             833571.21721287
   481       46.9390             820149.61057442
   482       46.9478             862631.80458140
   483       47.0096             812966.05189364
   484       47.0996             813313.29469946
   485       47.1867             886037.36158863
   486       47.3166             769346.96972038
   487       47.3265             843153.69614980
   488       47.3983             879010.31252542
   489       47.4807             882581.12459911
   490       47.5640             932883.53446557
   491       47.7314             808228.71135843
   492       47.7486             904201.88973284
   493       47.8165             812133.21101844
   494       47.8614             794784.38776713
   495       47.9922             827189.36641632
   496       48.0280             797360.12710317
   497       48.0956             809137.82782134
   498       48.1597             808429.73502308
   499       48.3603             820490.25453410
   500       48.3658             873237.10379086
   501       48.4517             852225.35055977
   502       48.4857             750349.60067154
   503       48.5297             886599.50984144
   504       48.7078             741771.58799991
   505       48.8396             828773.64178685
   506       48.9191             824197.16062866
   507       48.9746             788739.40650711
   508       49.0108             753275.05313845
   509       49.1004             888238.40399234
   510       49.1807             804389.39505751
   511       49.1927             827514.74430647
   512       49.3466             769768.71382293
   513       49.3715             788032.08127702
   514       49.4776             787114.26111101
   515       49.5503             800715.40907043
   516       49.6663             791704.95058474
   517       49.6948             803780.54204999
   518       49.7138             867009.78696594
   519       49.8267             817682.51808385
   520       49.9241             843424.45274066
   521       50.0115             782761.82280717
   522       50.0630             748132.43949593
   523       50.1321             810399.88354708
   524       50.2603             775152.70503132
   525       50.2803             803131.99664280
   526       50.3742             844833.73806411
   527       50.4207             733255.49084039
   528       50.5272             839018.77192568
   529       50.5623             739558.09103784
   530       50.7255             786570.82639080
   531       50.8132             741639.80364601
   532       50.8736             696993.66839928
   533       50.9851             779479.08754351
   534       50.9964             710059.10294475
   535       51.0609             854887.97621297
   536       51.1500             785101.71612763
   537       51.1976             800903.08075780
   538       51.3551             791304.13584504
   539       51.4649             715459.28440558
   540       51.4911             802750.96327612
   541       51.5276             778487.06239924
   542       51.6389             729806.62387248
   543       51.7280             720088.74364354
   544       51.8972             756164.19624797
   545       51.9572             833940.66248196
   546       51.9962             739734.12296852
   547       52.0584             815882.06563617
   548       52.1606             769021.65297331
   549       52.2727             732624.44875452
   550       52.3260             771952.72194640
   551       52.4550             805200.08538984
   552       52.4890             726847.24395730
   553       52.5629             816119.64815641
   554       52.6552             815162.85413902
   555       52.6912             773521.51755693
   556       52.7964             696027.02869833
   557       52.8503             704747.02052798
   558       52.9548             810417.35227971
   559       53.0031             809398.66083694
   560       53.0268             754891.25355815
   561       53.1603             780556.46044400
   562       53.2720             830137.06359781
   563       53.3444             772190.00041443
   564       53.4662             700783.42040414
   565       53.5118             743166.27476686
   566       53.6110             775582.75877657
   567       53.6634             688616.31562374
   568       53.8292             725174.42546741
   569       53.9819             780949.38381226
   570       53.9885             698203.61814961
   571       54.0359             690363.50957864
   572       54.1658             803004.24675176
   573       54.3284             760654.31120467
   574       54.3986             755928.88517770
   575       54.4535             619062.65611329
   576       54.5270             828655.25026977
   577       54.6050             703989.51462055
   578       54.7211             721330.21115966
   579       54.7480             724188.91148384
   580       54.7655             698630.58665583
   581       54.9694             679347.08727357
   582       55.0055             697931.58260162
   583       55.1509             668932.47032425
   584       55.1646             757613.03660210
   585       55.2438             661675.33411118
   586       55.4195             657325.50373790
   587       55.4273             610822.25071552
   588       55.5911             683930.67748758
   589       55.6573             715976.15681584
   590       55.6913             714219.90234659
   591       55.7328             787493.84762979
   592       55.7392             703325.82716655
   593       55.8299             722769.08341142
   594       55.9525             717871.19241980
   595       56.0339             573859.23699209
   596       56.1947             700152.86066396
   597       56.2357             600702.28345321
   598       56.2755             646376.80662730
   599       56.3863             684579.25088411
   600       56.4467             595165.35358921
   601       56.5115             644564.22711884
   602       56.6033             625565.83039346
   603       56.7367             663406.37904767
   604       56.8419             677829.80833135
   605       56.9169             593500.14185667
   606       57.1073             690004.92942291
   607       57.2286             639503.48759695
   608       57.2947             608072.64411320
   609       57.4178             678952.51371410
   610       57.5105             716532.86847564
   611       57.6561             667319.19110581
   612       57.7097             659467.47407929
   613       57.7734             648073.98665391
   614       57.8592             659114.76061811
   615       57.9530             634914.26776536
   616       58.0132             639970.90343290
   617       58.0405             588187.62823184
   618       58.0719             656700.56858664
   619       58.1805             705396.59339301
   620       58.2638             573685.65554615
   621       58.3820             656750.76954562
   622       58.4887             580456.33621834
   623       58.6737             591899.45888062
   624       58.7041             620062.43548801
   625       58.8170             514756.76694704
   626       58.9637             656446.06060419
   627       59.0654             632869.83098297
   628       59.0707             596582.09830538
   629       59.1556             555080.43913950
   630       59.1932             545159.65264254
   631       59.3764             591782.64103282
   632       59.4833             567493.61112929
   633       59.5558             602395.49758419
   634       59.5933             570703.30202044
   635       59.6562             590618.54826661
   636       59.7231             530762.19297973
   637       59.9682             511696.27861773
   638       59.9777             599806.89585305
   639       60.0591             563601.36163405
   640       60.1227             599555.86759674
   641       60.2230             507859.81159034
   642       60.3120             605924.43961976
   643       60.4487             523038.43202998
   644       60.5023             604680.80730297
   645       60.5275             517668.39303947
   646       60.6970             510389.34807008
   647       60.7403             512978.87751671
   648       60.7945             549349.52051651
   649       60.8984             546024.04526756
   650       61.0254             536831.44969572
   651       61.1344             540001.59113147
   652       61.2125             527909.68520601
   653       61.2639             577427.03464120
   654       61.2900             523962.00630837
   655       61.4149             541363.29442135
   656       61.4826             549872.17202966
   657       61.5623             487445.61837527
   658       61.6866             451734.11790845
   659       61.7476             504260.57036742
   660       61.8472             525735.03322072
   661       62.0353             521148.32567034
   662       62.0729             519650.07790301
   663       62.1565             537475.30013564
   664       62.1990             511184.60934244
   665       62.3681             485994.38179455
   666       62.5405             477037.06522493
   667       62.5759             477598.23197969
   668       62.6969             597359.15039026
   669       62.8182             428538.53077079
   670       62.8695             441647.56527058
   671       63.0114             484126.79563857
   672       63.1062             544593.08133148
   673       63.2087             388249.56943647
   674       63.2770             417748.78760521
   675       63.3926             482572.29446723
   676       63.4673             452325.97193531
   677       63.5509             383714.24890900
   678       63.6328             369317.87919292
   679       63.7789             418670.19903209
   680       63.8633             381326.33903116
   681       63.9540             433154.68900506
   682       64.0107             469946.46931937
   683       64.1045             428112.30056870
   684       64.2124             463835.02657694
   685       64.2665             433484.80470038
   686       64.3734             486055.75567068
   687       64.4695             467165.76515497
   688       64.4859             405428.42227689
   689       64.6549             413984.74717595
   690       64.6822             455697.70098431
   691       64.8490             427567.42702061
   692       65.0638             356623.85546154
   693       65.1329             428780.70822161
   694       65.2662             430059.73636473
   695       65.4101             375368.29505254
   696       65.4987             480493.21004781
   697       65.5898             370146.62630286
   698       65.7096             452870.71832902
   699       65.8943             457010.67614234
   700       66.0443             485600.11505337
   701       66.1847             411594.60844687
   702       66.3292             428319.17578021
   703       66.3921             467771.20952534
   704       66.4705             426169.08680916
   705       66.5736             383097.53916693
   706       66.7284             347203.58106423
   707       66.8066             441588.59876089
   708       66.9576             321475.94686176
   709       67.0153             327660.59829179
   710       67.2512             407579.80761554
   711       67.4019             375187.18362113
   712       67.5116             386322.05795097
   713       67.7367             485500.92592150
   714       67.8079             371030.06041294
   715       67.8937             364571.84566136
   716       67.9674             352550.71374639
   717       68.1264             357573.70393229
   718       68.3097             400271.39355796
   719       68.4276             388870.01225268
   720       68.8271             415594.21328004
   721       68.9283             360316.10208647
   722       68.9850             348377.09277482
   723       69.2094             399886.67507114
   724       69.2802             455354.91127809
   725       69.4547             361774.94891519
   726       69.5707             315570.16666114
   727       69.8195             410015.95564740
   728       69.8483             346249.71533790
   729       70.0331             344067.94603572
   730       70.1110             394214.34303208
   731       70.2036             271878.81792260
   732       70.3872             348814.26610331
   733       70.5281             353271.69294899
   734       70.6101             343559.83417606
   735       70.8812             300229.98161747
   736       71.0965             331927.43199462
   737       71.3070             331381.19703854
   738       71.6836             353223.03134288
   739       71.8018             312238.02884242
   740       71.9721             279635.59064973
   741       72.2651             325924.07466443
   742       72.7941             299670.11122286
   743       72.8602             351273.95381149
   744       73.3670             370326.05352710
   745       73.4067             326122.57499289
   746       73.6823             339664.65689817
   747       73.8168             341991.16034835
   748       74.0319             314324.16721253
   749       74.1519             331575.58607584
   750       74.3035             271840.01697119
   751       74.6422             349097.75971101
   752       75.2851             289713.70896341
   753       75.4212             336470.12700723
   754       76.2103             409714.70544771
   755       76.3446             275880.50040771
   756       76.5906             235167.68813987
   757       76.8502             299708.59992939
   758       76.9126             229280.99145804
   759       77.4417             355987.45806535
   760       77.6652             269681.82128876
   761       78.0298             305700.20319269
   762       78.3023             270490.41700034
   763       78.5114             192771.13865749
   764       79.4656             187315.69837073
   765       81.2291             310875.71518485
   766       82.4449             236654.83347577
   767       82.8510             257471.45738044
   768       86.3543             196088.77212591
--------------------------------------------------------------------------------

--------------------------------------------------------------------------------
  Phonon properties (per mole of unit cells): Temperature =      0.000 K
--------------------------------------------------------------------------------
  Zero point energy            =        1.930227 eV
--------------------------------------------------------------------------------

  Phonon density of states : 

--------------------------------------------------------------------------------
 Frequency (cm-1) Density of States                                             
--------------------------------------------------------------------------------
    0.00000 |**                                                            0.001
    1.34929 |                                                              0.000
    2.69857 |**                                                            0.001
    4.04786 |**                                                            0.001
    5.39715 |***********                                                   0.005
    6.74644 |***********                                                   0.005
    8.09572 |********************                                          0.009
    9.44501 |**********************                                        0.010
   10.79430 |****************************                                  0.013
   12.14358 |*************************                                     0.012
   13.49287 |**********************************                            0.016
   14.84216 |*******************************                               0.014
   16.19145 |*************************************                         0.017
   17.54073 |****************************************                      0.018
   18.89002 |************************************************              0.022
   20.23931 |******************************************                    0.020
   21.58859 |************************************************              0.022
   22.93788 |***************************************************           0.023
   24.28717 |******************************************************        0.025
   25.63646 |************************************************              0.022
   26.98574 |*********************************************************     0.026
   28.33503 |***************************************************           0.023
   29.68432 |******************************************************        0.025
   31.03361 |******************************************************        0.025
   32.38289 |******************************************************        0.025
   33.73218 |*********************************************************     0.026
   35.08147 |************************************************************  0.027
   36.43075 |******************************************************        0.025
   37.78004 |******************************************************        0.025
   39.12933 |*********************************************************     0.026
   40.47862 |************************************************              0.022
   41.82790 |************************************************************  0.027
   43.17719 |************************************************              0.022
   44.52648 |************************************************              0.022
   45.87576 |******************************************************        0.025
   47.22505 |***************************************************           0.023
   48.57434 |*********************************************                 0.021
   49.92363 |***************************************************           0.023
   51.27291 |*********************************************                 0.021
   52.62220 |******************************************                    0.020
   53.97149 |************************************************              0.022
   55.32077 |************************************************              0.022
   56.67006 |****************************************                      0.018
   58.01935 |****************************************                      0.018
   59.36864 |*********************************************                 0.021
   60.71792 |******************************************                    0.020
   62.06721 |****************************************                      0.018
   63.41650 |******************************************                    0.020
   64.76578 |****************************                                  0.013
   66.11507 |*******************************                               0.014
   67.46436 |**********************                                        0.010
   68.81365 |*******************************                               0.014
   70.16293 |********************                                          0.009
   71.51222 |*****************                                             0.008
   72.86151 |*****************                                             0.008
   74.21079 |***********                                                   0.005
   75.56008 |***********                                                   0.005
   76.90937 |***********                                                   0.005
   78.25866 |********                                                      0.004
   79.60794 |                                                              0.000
   80.95723 |**                                                            0.001
   82.30652 |*****                                                         0.003
   83.65581 |                                                              0.000
   85.00509 |**                                                            0.001
--------------------------------------------------------------------------------



  XYZ File written as gulp.xyz                                


  Time to end of properties =      17.6091 seconds


  Peak dynamic memory used =      10.73 MB 


  Timing analysis for GULP :

--------------------------------------------------------------------------------
  Task / Subroutine                                          Time (Seconds)
--------------------------------------------------------------------------------
  Calculation of real space energy and derivatives                0.0400
  Calculation of phonons                                         16.9051
  Calculation of scattering                                       0.0000
--------------------------------------------------------------------------------
  Total CPU time                                                 17.6091
--------------------------------------------------------------------------------


  Job Finished at 15:53.47 24th February   2013                               

