********************************************************************************
*                       GENERAL UTILITY LATTICE PROGRAM                        *
*                                 Julian Gale                                  *
*                      Nanochemistry Research Institute                        *
*                           Department of Chemistry                            *
*                    Curtin University, Western Australia                      *
********************************************************************************
* Version = 4.1.0 * Last modified =  13th June 2013                            *
********************************************************************************
*  single       - perform a single point run                                   *
*  phonon       - calculate phonons for final geometry                         *
*  thermal      - calculate thermal conductivity for final geometry            *
********************************************************************************

  Job Started  at 22:36.18 19th June       2013                               

  Number of CPUs =     1


  Total number of configurations input =   1

********************************************************************************
*  Input for Configuration =   1                                               *
********************************************************************************

  Formula = Ar256                                                       

  Number of irreducible atoms/shells =     256


  Total number atoms/shells =     256

  Dimensionality = 3               :  Bulk   



  Cartesian lattice vectors (Angstroms) :

       21.483900    0.000000    0.000000
        0.000000   21.483900    0.000000
        0.000000    0.000000   21.483900

  Cell parameters (Angstroms/Degrees):

  a =      21.4839    alpha =  90.0000
  b =      21.4839    beta  =  90.0000
  c =      21.4839    gamma =  90.0000

  Initial cell volume =        9916.065040 Angs**3

  Temperature of configuration =  1000.     K 

  Pressure of configuration =         0.000 GPa 

  Fractional coordinates of asymmetric unit :

--------------------------------------------------------------------------------
   No.  Atomic       x           y          z         Charge      Occupancy
        Label      (Frac)      (Frac)     (Frac)        (e)         (Frac)  
--------------------------------------------------------------------------------
      1 Ar    c    0.498420    0.342613    0.995727     0.00000    1.000000    
      2 Ar    c    0.819032    0.630435    0.617365     0.00000    1.000000    
      3 Ar    c    0.643919    0.102986    0.041318     0.00000    1.000000    
      4 Ar    c    0.978398    0.073293    0.727684     0.00000    1.000000    
      5 Ar    c    0.700227    0.132449    0.200386     0.00000    1.000000    
      6 Ar    c    0.790117    0.538170    0.479568     0.00000    1.000000    
      7 Ar    c    0.676665    0.535955    0.356698     0.00000    1.000000    
      8 Ar    c    0.646405    0.849832    0.942096     0.00000    1.000000    
      9 Ar    c    0.107862    0.300388    0.268103     0.00000    1.000000    
     10 Ar    c    0.187631    0.550328    0.853076     0.00000    1.000000    
     11 Ar    c    0.851493    0.398066    0.170143     0.00000    1.000000    
     12 Ar    c    0.473396    0.074905    0.516666     0.00000    1.000000    
     13 Ar    c    0.968902    0.547936    0.309236     0.00000    1.000000    
     14 Ar    c    0.589004    0.957415    0.478824     0.00000    1.000000    
     15 Ar    c    0.939545    0.860672    0.110589     0.00000    1.000000    
     16 Ar    c    0.479173    0.407309    0.834620     0.00000    1.000000    
     17 Ar    c    0.866654    0.944405    0.364848     0.00000    1.000000    
     18 Ar    c    0.458981    0.088899    0.343327     0.00000    1.000000    
     19 Ar    c    0.807498    0.490377    0.886734     0.00000    1.000000    
     20 Ar    c    0.350193    0.427091    0.967385     0.00000    1.000000    
     21 Ar    c    0.237545    0.126725    0.926666     0.00000    1.000000    
     22 Ar    c    0.280481    0.732800    0.570045     0.00000    1.000000    
     23 Ar    c    0.924432    0.215421    0.872523     0.00000    1.000000    
     24 Ar    c    0.568970    0.077532    0.813684     0.00000    1.000000    
     25 Ar    c    0.686714    0.366573    0.264418     0.00000    1.000000    
     26 Ar    c    0.722890    0.334953    0.697648     0.00000    1.000000    
     27 Ar    c    0.774687    0.739335    0.937218     0.00000    1.000000    
     28 Ar    c    0.939862    0.031460    0.044624     0.00000    1.000000    
     29 Ar    c    0.601474    0.564474    0.060838     0.00000    1.000000    
     30 Ar    c    0.242228    0.320063    0.385470     0.00000    1.000000    
     31 Ar    c    0.126239    0.149847    0.333813     0.00000    1.000000    
     32 Ar    c    0.395487    0.628270    0.651088     0.00000    1.000000    
     33 Ar    c    0.576567    0.652987    0.209138     0.00000    1.000000    
     34 Ar    c    0.942571    0.029297    0.552176     0.00000    1.000000    
     35 Ar    c    0.812846    0.647862    0.792319     0.00000    1.000000    
     36 Ar    c    0.193091    0.817687    0.014319     0.00000    1.000000    
     37 Ar    c    0.354512    0.331788    0.104515     0.00000    1.000000    
     38 Ar    c    0.105055    0.989048    0.297683     0.00000    1.000000    
     39 Ar    c    0.562989    0.490474    0.477385     0.00000    1.000000    
     40 Ar    c    0.390280    0.687110    0.815062     0.00000    1.000000    
     41 Ar    c    0.682106    0.767631    0.636751     0.00000    1.000000    
     42 Ar    c    0.965388    0.377129    0.305644     0.00000    1.000000    
     43 Ar    c    0.258182    0.899585    0.510904     0.00000    1.000000    
     44 Ar    c    0.534344    0.535717    0.635755     0.00000    1.000000    
     45 Ar    c    0.961781    0.933992    0.831376     0.00000    1.000000    
     46 Ar    c    0.252232    0.182899    0.633316     0.00000    1.000000    
     47 Ar    c    0.446795    0.111637    0.051183     0.00000    1.000000    
     48 Ar    c    0.428311    0.460261    0.368806     0.00000    1.000000    
     49 Ar    c    0.418244    0.562053    0.233605     0.00000    1.000000    
     50 Ar    c    0.840159    0.890188    0.527428     0.00000    1.000000    
     51 Ar    c    0.654727    0.624598    0.531700     0.00000    1.000000    
     52 Ar    c    0.505681    0.805547    0.178151     0.00000    1.000000    
     53 Ar    c    0.025033    0.210325    0.470012     0.00000    1.000000    
     54 Ar    c    0.122766    0.072180    0.037809     0.00000    1.000000    
     55 Ar    c    0.267947    0.680207    0.114213     0.00000    1.000000    
     56 Ar    c    0.619455    0.936208    0.106645     0.00000    1.000000    
     57 Ar    c    0.363899    0.220406    0.505872     0.00000    1.000000    
     58 Ar    c    0.928961    0.627256    0.470231     0.00000    1.000000    
     59 Ar    c    0.117632    0.965248    0.764228     0.00000    1.000000    
     60 Ar    c    0.657232    0.747676    0.806627     0.00000    1.000000    
     61 Ar    c    0.450861    0.956367    0.110502     0.00000    1.000000    
     62 Ar    c    0.202760    0.679783    0.423071     0.00000    1.000000    
     63 Ar    c    0.926173    0.191413    0.610876     0.00000    1.000000    
     64 Ar    c    0.523075    0.608930    0.361841     0.00000    1.000000    
     65 Ar    c    0.820093    0.633619    0.335602     0.00000    1.000000    
     66 Ar    c    0.086279    0.367382    0.429321     0.00000    1.000000    
     67 Ar    c    0.910966    0.478084    0.028333     0.00000    1.000000    
     68 Ar    c    0.599812    0.787636    0.492215     0.00000    1.000000    
     69 Ar    c    0.612854    0.391340    0.113324     0.00000    1.000000    
     70 Ar    c    0.774073    0.734015    0.493369     0.00000    1.000000    
     71 Ar    c    0.877634    0.309980    0.016574     0.00000    1.000000    
     72 Ar    c    0.025771    0.237403    0.736519     0.00000    1.000000    
     73 Ar    c    0.869535    0.154522    0.157049     0.00000    1.000000    
     74 Ar    c    0.311009    0.598802    0.968618     0.00000    1.000000    
     75 Ar    c    0.758833    0.841868    0.084146     0.00000    1.000000    
     76 Ar    c    0.629090    0.079294    0.355843     0.00000    1.000000    
     77 Ar    c    0.307970    0.511523    0.116477     0.00000    1.000000    
     78 Ar    c    0.426141    0.806483    0.521460     0.00000    1.000000    
     79 Ar    c    0.822909    0.461528    0.322751     0.00000    1.000000    
     80 Ar    c    0.355969    0.046062    0.213793     0.00000    1.000000    
     81 Ar    c    0.136875    0.465390    0.288123     0.00000    1.000000    
     82 Ar    c    0.492722    0.655966    0.518756     0.00000    1.000000    
     83 Ar    c    0.225439    0.021572    0.632511     0.00000    1.000000    
     84 Ar    c    0.195512    0.186523    0.477972     0.00000    1.000000    
     85 Ar    c    0.420380    0.196510    0.204060     0.00000    1.000000    
     86 Ar    c    0.303982    0.854323    0.824776     0.00000    1.000000    
     87 Ar    c    0.863046    0.897560    0.963382     0.00000    1.000000    
     88 Ar    c    0.044296    0.729774    0.406486     0.00000    1.000000    
     89 Ar    c    0.540484    0.364041    0.680384     0.00000    1.000000    
     90 Ar    c    0.037344    0.073664    0.891007     0.00000    1.000000    
     91 Ar    c    0.564395    0.037349    0.652624     0.00000    1.000000    
     92 Ar    c    0.985664    0.059130    0.388745     0.00000    1.000000    
     93 Ar    c    0.541764    0.989588    0.956735     0.00000    1.000000    
     94 Ar    c    0.723002    0.389457    0.436365     0.00000    1.000000    
     95 Ar    c    0.919670    0.771936    0.840872     0.00000    1.000000    
     96 Ar    c    0.828653    0.402783    0.572801     0.00000    1.000000    
     97 Ar    c    0.753611    0.423768    0.033878     0.00000    1.000000    
     98 Ar    c    0.124281    0.798398    0.543030     0.00000    1.000000    
     99 Ar    c    0.674133    0.597042    0.886436     0.00000    1.000000    
    100 Ar    c    0.664777    0.704407    0.356998     0.00000    1.000000    
    101 Ar    c    0.150524    0.557985    0.142630     0.00000    1.000000    
    102 Ar    c    0.269624    0.980078    0.352520     0.00000    1.000000    
    103 Ar    c    0.224837    0.306071    0.985505     0.00000    1.000000    
    104 Ar    c    0.907563    0.625198    0.935556     0.00000    1.000000    
    105 Ar    c    0.375720    0.243717    0.941905     0.00000    1.000000    
    106 Ar    c    0.950749    0.517122    0.619250     0.00000    1.000000    
    107 Ar    c    0.237118    0.569254    0.562891     0.00000    1.000000    
    108 Ar    c    0.079271    0.948869    0.601190     0.00000    1.000000    
    109 Ar    c    0.616289    0.303302    0.826805     0.00000    1.000000    
    110 Ar    c    0.966133    0.205197    0.311294     0.00000    1.000000    
    111 Ar    c    0.198234    0.959630    0.917818     0.00000    1.000000    
    112 Ar    c    0.915113    0.993400    0.213000     0.00000    1.000000    
    113 Ar    c    0.747597    0.681869    0.189324     0.00000    1.000000    
    114 Ar    c    0.672122    0.610876    0.703918     0.00000    1.000000    
    115 Ar    c    0.007133    0.898477    0.452270     0.00000    1.000000    
    116 Ar    c    0.803066    0.491438    0.716229     0.00000    1.000000    
    117 Ar    c    0.977527    0.286210    0.159429     0.00000    1.000000    
    118 Ar    c    0.380658    0.933280    0.948631     0.00000    1.000000    
    119 Ar    c    0.714805    0.513990    0.183120     0.00000    1.000000    
    120 Ar    c    0.134221    0.228492    0.109538     0.00000    1.000000    
    121 Ar    c    0.091989    0.551278    0.424606     0.00000    1.000000    
    122 Ar    c    0.508767    0.210246    0.610764     0.00000    1.000000    
    123 Ar    c    0.224141    0.453362    0.703820     0.00000    1.000000    
    124 Ar    c    0.539674    0.690084    0.929594     0.00000    1.000000    
    125 Ar    c    0.633223    0.731720    0.067855     0.00000    1.000000    
    126 Ar    c    0.726958    0.035330    0.757041     0.00000    1.000000    
    127 Ar    c    0.124176    0.732069    0.704737     0.00000    1.000000    
    128 Ar    c    0.953123    0.768231    0.554708     0.00000    1.000000    
    129 Ar    c    0.485457    0.823324    0.843944     0.00000    1.000000    
    130 Ar    c    0.670288    0.283029    0.984398     0.00000    1.000000    
    131 Ar    c    0.393952    0.517425    0.521809     0.00000    1.000000    
    132 Ar    c    0.554252    0.934607    0.300959     0.00000    1.000000    
    133 Ar    c    0.251409    0.629076    0.721196     0.00000    1.000000    
    134 Ar    c    0.229965    0.917138    0.201668     0.00000    1.000000    
    135 Ar    c    0.945448    0.462177    0.455419     0.00000    1.000000    
    136 Ar    c    0.258325    0.591108    0.272235     0.00000    1.000000    
    137 Ar    c    0.993260    0.186760    0.024047     0.00000    1.000000    
    138 Ar    c    0.541229    0.188612    0.935636     0.00000    1.000000    
    139 Ar    c    0.073281    0.640168    0.564334     0.00000    1.000000    
    140 Ar    c    0.660141    0.817673    0.230234     0.00000    1.000000    
    141 Ar    c    0.563762    0.360860    0.375483     0.00000    1.000000    
    142 Ar    c    0.705514    0.162942    0.868599     0.00000    1.000000    
    143 Ar    c    0.351982    0.525114    0.821978     0.00000    1.000000    
    144 Ar    c    0.889252    0.781273    0.387004     0.00000    1.000000    
    145 Ar    c    0.496060    0.780147    0.356777     0.00000    1.000000    
    146 Ar    c    0.043405    0.519957    0.939848     0.00000    1.000000    
    147 Ar    c    0.614106    0.913321    0.779658     0.00000    1.000000    
    148 Ar    c    0.077599    0.946793    0.140291     0.00000    1.000000    
    149 Ar    c    0.780403    0.010631    0.097161     0.00000    1.000000    
    150 Ar    c    0.618123    0.444246    0.938391     0.00000    1.000000    
    151 Ar    c    0.578242    0.223413    0.277822     0.00000    1.000000    
    152 Ar    c    0.421995    0.941682    0.424464     0.00000    1.000000    
    153 Ar    c    0.136881    0.297525    0.586393     0.00000    1.000000    
    154 Ar    c    0.094979    0.563571    0.711496     0.00000    1.000000    
    155 Ar    c    0.943739    0.705370    0.233747     0.00000    1.000000    
    156 Ar    c    0.107668    0.463918    0.569082     0.00000    1.000000    
    157 Ar    c    0.257233    0.491121    0.411756     0.00000    1.000000    
    158 Ar    c    0.262168    0.253925    0.225946     0.00000    1.000000    
    159 Ar    c    0.134624    0.393667    0.865685     0.00000    1.000000    
    160 Ar    c    0.355305    0.760258    0.961925     0.00000    1.000000    
    161 Ar    c    0.342565    0.830492    0.111607     0.00000    1.000000    
    162 Ar    c    0.446699    0.963317    0.764479     0.00000    1.000000    
    163 Ar    c    0.891374    0.342993    0.723207     0.00000    1.000000    
    164 Ar    c    0.471991    0.539488    0.949958     0.00000    1.000000    
    165 Ar    c    0.185762    0.386243    0.142065     0.00000    1.000000    
    166 Ar    c    0.223191    0.714284    0.863568     0.00000    1.000000    
    167 Ar    c    0.017315    0.455513    0.161991     0.00000    1.000000    
    168 Ar    c    0.098596    0.232402    0.896676     0.00000    1.000000    
    169 Ar    c    0.538934    0.871955    0.631450     0.00000    1.000000    
    170 Ar    c    0.766444    0.592029    0.032696     0.00000    1.000000    
    171 Ar    c    0.650994    0.182092    0.698756     0.00000    1.000000    
    172 Ar    c    0.280987    0.002434    0.063624     0.00000    1.000000    
    173 Ar    c    0.097884    0.824459    0.850558     0.00000    1.000000    
    174 Ar    c    0.818762    0.187567    0.742295     0.00000    1.000000    
    175 Ar    c    0.717351    0.000000    0.929813     0.00000    1.000000    
    176 Ar    c    0.156411    0.853895    0.382336     0.00000    1.000000    
    177 Ar    c    0.411360    0.087033    0.882777     0.00000    1.000000    
    178 Ar    c    0.679560    0.467224    0.598453     0.00000    1.000000    
    179 Ar    c    0.707842    0.223793    0.400694     0.00000    1.000000    
    180 Ar    c    0.475994    0.224109    0.781604     0.00000    1.000000    
    181 Ar    c    0.050359    0.403463    0.719837     0.00000    1.000000    
    182 Ar    c    0.310455    0.191381    0.792305     0.00000    1.000000    
    183 Ar    c    0.877527    0.309268    0.436112     0.00000    1.000000    
    184 Ar    c    0.819888    0.271017    0.280243     0.00000    1.000000    
    185 Ar    c    0.723793    0.971942    0.255017     0.00000    1.000000    
    186 Ar    c    0.532869    0.712780    0.692393     0.00000    1.000000    
    187 Ar    c    0.088560    0.125291    0.604751     0.00000    1.000000    
    188 Ar    c    0.859830    0.060358    0.863172     0.00000    1.000000    
    189 Ar    c    0.404442    0.286843    0.352995     0.00000    1.000000    
    190 Ar    c    0.397275    0.103689    0.676251     0.00000    1.000000    
    191 Ar    c    0.700436    0.936189    0.615228     0.00000    1.000000    
    192 Ar    c    0.829319    0.833657    0.238558     0.00000    1.000000    
    193 Ar    c    0.445560    0.660820    0.083554     0.00000    1.000000    
    194 Ar    c    0.949311    0.529420    0.794628     0.00000    1.000000    
    195 Ar    c    0.300374    0.148260    0.347819     0.00000    1.000000    
    196 Ar    c    0.871909    0.564758    0.173118     0.00000    1.000000    
    197 Ar    c    0.786654    0.321834    0.862967     0.00000    1.000000    
    198 Ar    c    0.543286    0.071721    0.192996     0.00000    1.000000    
    199 Ar    c    0.388745    0.802731    0.688990     0.00000    1.000000    
    200 Ar    c    0.498466    0.828388    0.015367     0.00000    1.000000    
    201 Ar    c    0.749319    0.018488    0.457619     0.00000    1.000000    
    202 Ar    c    0.045534    0.920810    0.978575     0.00000    1.000000    
    203 Ar    c    0.457318    0.359895    0.521525     0.00000    1.000000    
    204 Ar    c    0.145749    0.648905    0.997230     0.00000    1.000000    
    205 Ar    c    0.777997    0.876289    0.818180     0.00000    1.000000    
    206 Ar    c    0.644618    0.462857    0.774659     0.00000    1.000000    
    207 Ar    c    0.198125    0.089048    0.194150     0.00000    1.000000    
    208 Ar    c    0.309505    0.061619    0.494938     0.00000    1.000000    
    209 Ar    c    0.820503    0.100244    0.311468     0.00000    1.000000    
    210 Ar    c    0.563510    0.486485    0.248576     0.00000    1.000000    
    211 Ar    c    0.191318    0.475249    0.001778     0.00000    1.000000    
    212 Ar    c    0.184197    0.291606    0.744795     0.00000    1.000000    
    213 Ar    c    0.870340    0.714772    0.078013     0.00000    1.000000    
    214 Ar    c    0.521302    0.578084    0.796164     0.00000    1.000000    
    215 Ar    c    0.560201    0.230756    0.110299     0.00000    1.000000    
    216 Ar    c    0.393050    0.455783    0.677931     0.00000    1.000000    
    217 Ar    c    0.371353    0.293236    0.666173     0.00000    1.000000    
    218 Ar    c    0.478637    0.351111    0.218254     0.00000    1.000000    
    219 Ar    c    0.310884    0.416521    0.257248     0.00000    1.000000    
    220 Ar    c    0.838498    0.787571    0.683833     0.00000    1.000000    
    221 Ar    c    0.745679    0.274182    0.128309     0.00000    1.000000    
    222 Ar    c    0.860323    0.146720    0.462303     0.00000    1.000000    
    223 Ar    c    0.378680    0.720377    0.245680     0.00000    1.000000    
    224 Ar    c    0.962605    0.672043    0.700054     0.00000    1.000000    
    225 Ar    c    0.809443    0.153920    0.000000     0.00000    1.000000    
    226 Ar    c    0.006346    0.854831    0.279120     0.00000    1.000000    
    227 Ar    c    0.287238    0.019885    0.787255     0.00000    1.000000    
    228 Ar    c    0.055051    0.358883    0.020211     0.00000    1.000000    
    229 Ar    c    0.390343    0.891482    0.264987     0.00000    1.000000    
    230 Ar    c    0.005102    0.614833    0.085439     0.00000    1.000000    
    231 Ar    c    0.789629    0.083612    0.609042     0.00000    1.000000    
    232 Ar    c    0.957857    0.381639    0.878476     0.00000    1.000000    
    233 Ar    c    0.320488    0.800772    0.388935     0.00000    1.000000    
    234 Ar    c    0.098104    0.644757    0.273850     0.00000    1.000000    
    235 Ar    c    0.315962    0.358676    0.819604     0.00000    1.000000    
    236 Ar    c    0.140119    0.024057    0.463156     0.00000    1.000000    
    237 Ar    c    0.053887    0.661281    0.847155     0.00000    1.000000    
    238 Ar    c    0.216703    0.760272    0.256964     0.00000    1.000000    
    239 Ar    c    0.387811    0.951955    0.604387     0.00000    1.000000    
    240 Ar    c    0.363614    0.635215    0.402324     0.00000    1.000000    
    241 Ar    c    0.000000    0.841998    0.699831     0.00000    1.000000    
    242 Ar    c    0.981549    0.345018    0.573211     0.00000    1.000000    
    243 Ar    c    0.152349    0.126757    0.768073     0.00000    1.000000    
    244 Ar    c    0.864689    0.954012    0.689405     0.00000    1.000000    
    245 Ar    c    0.280734    0.384520    0.548397     0.00000    1.000000    
    246 Ar    c    0.643175    0.128182    0.531477     0.00000    1.000000    
    247 Ar    c    0.225723    0.861082    0.675636     0.00000    1.000000    
    248 Ar    c    0.293504    0.172883    0.080046     0.00000    1.000000    
    249 Ar    c    0.010391    0.756934    0.986376     0.00000    1.000000    
    250 Ar    c    0.621335    0.313572    0.541494     0.00000    1.000000    
    251 Ar    c    0.529341    0.211496    0.439593     0.00000    1.000000    
    252 Ar    c    0.466214    0.471418    0.101119     0.00000    1.000000    
    253 Ar    c    0.086977    0.762804    0.142293     0.00000    1.000000    
    254 Ar    c    0.717021    0.864042    0.390249     0.00000    1.000000    
    255 Ar    c    0.032033    0.112601    0.184133     0.00000    1.000000    
    256 Ar    c    0.771019    0.244999    0.564665     0.00000    1.000000    
--------------------------------------------------------------------------------


  Brillouin zone sampling points :

--------------------------------------------------------------------------------
  Point number          x          y          z            Weight
--------------------------------------------------------------------------------
        1           0.000000   0.000000   0.000000         1.0000
--------------------------------------------------------------------------------


********************************************************************************
*  General input information                                                   *
********************************************************************************

  Species output for all configurations : 

--------------------------------------------------------------------------------
  Species    Type    Atomic    Atomic    Charge       Radii (Angs)     Library
                     Number     Mass       (e)     Cova   Ionic  VDW   Symbol
--------------------------------------------------------------------------------
    Ar       Core       18      39.95   0.000000   0.000  0.000  0.000          
--------------------------------------------------------------------------------


  Lattice summation method               =    Ewald          (3-D)
                                         =    Parry          (2-D)
                                         =    Saunders et al (1-D)
  Accuracy factor for lattice sums       =   12.000


  Time limit = Infinity

  Maximum range for interatomic potentials =    100000.000000 Angstroms

  General interatomic potentials :

--------------------------------------------------------------------------------
Atom  Types   Potential         A         B         C         D     Cutoffs(Ang)
  1     2                                                            Min    Max 
--------------------------------------------------------------------------------
Ar   c Ar   c Lennard 12  6 0.995E+05  64.4      0.00      0.00     0.000  8.500
--------------------------------------------------------------------------------

********************************************************************************
*  Output for configuration   1                                                *
********************************************************************************


  Components of energy : 

--------------------------------------------------------------------------------
  Interatomic potentials     =         -19.69423482 eV
  Monopole - monopole (real) =           0.00000000 eV
  Monopole - monopole (recip)=           0.00000000 eV
  Monopole - monopole (total)=           0.00000000 eV
--------------------------------------------------------------------------------
  Total lattice energy       =         -19.69423482 eV
--------------------------------------------------------------------------------
  Total lattice energy       =           -1900.1926 kJ/(mole unit cells)
--------------------------------------------------------------------------------


  Elastic Constant Matrix: (Units=GPa)

-------------------------------------------------------------------------------
  Indices      1         2         3         4         5         6    
-------------------------------------------------------------------------------
       1      3.3862    2.2967    1.9120   -0.1483    0.0528   -0.0623
       2      2.2967    3.7132    1.8664   -0.0649   -0.0715    0.2468
       3      1.9120    1.8664    3.4888    0.2074    0.0732    0.0729
       4     -0.1483   -0.0649    0.2074    0.5493   -0.0062   -0.0765
       5      0.0528   -0.0715    0.0732   -0.0062    0.6989    0.0830
       6     -0.0623    0.2468    0.0729   -0.0765    0.0830    0.6703
-------------------------------------------------------------------------------


  Elastic Compliance Matrix: (Units=1/GPa)

-------------------------------------------------------------------------------
  Indices      1         2         3         4         5         6    
-------------------------------------------------------------------------------
       1    0.628619 -0.300204 -0.201288  0.241064 -0.082083  0.228510
       2   -0.300204  0.530955 -0.116996 -0.004151  0.115988 -0.225497
       3   -0.201288 -0.116996  0.476711 -0.255806 -0.042875 -0.051343
       4    0.241064 -0.004151 -0.255806  2.021062 -0.007421  0.283261
       5   -0.082083  0.115988 -0.042875 -0.007421  1.480589 -0.229905
       6    0.228510 -0.225497 -0.051343  0.283261 -0.229905  1.662596
-------------------------------------------------------------------------------

  Mechanical properties :

-------------------------------------------------------------------------------
  Convention :                    Reuss         Voigt         Hill
-------------------------------------------------------------------------------
  Bulk  Modulus (GPa)     =       2.50432       2.52649       2.51540
  Shear Modulus (GPa)     =       0.61195       0.68457       0.64826
-------------------------------------------------------------------------------
  Velocity S-wave (km/s)  =       0.59775       0.63222       0.61523
  Velocity P-wave (km/s)  =       1.39235       1.41708       1.40477
-------------------------------------------------------------------------------
  Compressibility (1/GPa) =    0.39931061
-------------------------------------------------------------------------------
  Stress axis :                     x             y             z
-------------------------------------------------------------------------------
  Youngs Moduli (GPa)     =       1.59079       1.88340       2.09771
-------------------------------------------------------------------------------
  Poissons Ratio (x)      =                     0.56540       0.42224
  Poissons Ratio (y)      =       0.47756                     0.24542
  Poissons Ratio (z)      =       0.32021       0.22035
-------------------------------------------------------------------------------


  Piezoelectric Strain Matrix: (Units=C/m**2)

-------------------------------------------------------------------------------
  Indices      1         2         3         4         5         6    
-------------------------------------------------------------------------------
       x    -0.00000  -0.00000  -0.00000  -0.00000  -0.00000  -0.00000
       y    -0.00000  -0.00000  -0.00000  -0.00000  -0.00000  -0.00000
       z    -0.00000  -0.00000  -0.00000  -0.00000  -0.00000  -0.00000
-------------------------------------------------------------------------------


  Piezoelectric Stress Matrix: (Units=10**-11 C/N)

-------------------------------------------------------------------------------
  Indices      1         2         3         4         5         6    
-------------------------------------------------------------------------------
       x     0.00000   0.00000   0.00000   0.00000   0.00000   0.00000
       y     0.00000   0.00000   0.00000   0.00000   0.00000   0.00000
       z     0.00000   0.00000   0.00000   0.00000   0.00000   0.00000
-------------------------------------------------------------------------------


  Static dielectric constant tensor : 

-------------------------------------------------------------------------------
              x         y         z
-------------------------------------------------------------------------------
       x     1.00000   0.00000   0.00000
       y     0.00000   1.00000   0.00000
       z     0.00000   0.00000   1.00000
--------------------------------------------------------------------------------

  Static refractive indices : 

-------------------------------------------------------------------------------
    1 =    1.00000      2 =    1.00000      3 =    1.00000
-------------------------------------------------------------------------------


  Phonon Calculation : 

  Number of k points for this configuration =        1

--------------------------------------------------------------------------------
  K point      1 =   0.000000  0.000000  0.000000  Weight =    1.000
--------------------------------------------------------------------------------

 Frequencies (cm-1) : 

   -0.00   -0.00    0.00    3.25    5.19    5.46    5.71    6.02    6.41
    6.80    7.32    7.67    7.98    8.15    8.22    8.60    8.87    9.09
    9.23    9.36    9.45    9.67    9.89   10.01   10.19   10.39   10.47
   10.57   10.89   11.22   11.36   11.38   11.57   11.70   11.80   11.90
   11.97   12.10   12.30   12.50   12.68   12.75   12.89   13.05   13.10
   13.18   13.39   13.61   13.63   13.79   13.84   13.93   14.15   14.22
   14.29   14.40   14.57   14.61   14.79   14.85   14.94   15.06   15.14
   15.34   15.40   15.54   15.61   15.89   15.90   16.10   16.23   16.34
   16.44   16.48   16.57   16.82   17.00   17.04   17.08   17.15   17.28
   17.38   17.41   17.59   17.65   17.71   17.81   17.85   17.97   18.10
   18.21   18.27   18.39   18.42   18.60   18.66   18.74   18.93   19.06
   19.13   19.17   19.28   19.31   19.41   19.49   19.57   19.71   19.73
   19.79   19.94   20.00   20.10   20.20   20.22   20.36   20.52   20.58
   20.62   20.65   20.77   20.85   20.95   21.06   21.13   21.20   21.25
   21.32   21.52   21.58   21.64   21.66   21.80   21.87   21.97   22.08
   22.09   22.16   22.23   22.40   22.48   22.58   22.61   22.67   22.72
   22.86   22.90   23.05   23.10   23.15   23.16   23.28   23.38   23.44
   23.55   23.60   23.64   23.64   23.76   23.88   23.99   24.02   24.09
   24.18   24.29   24.33   24.42   24.46   24.58   24.68   24.72   24.78
   24.90   24.98   25.03   25.04   25.08   25.19   25.31   25.38   25.42
   25.49   25.53   25.63   25.70   25.84   25.97   26.00   26.20   26.21
   26.22   26.29   26.31   26.42   26.46   26.54   26.60   26.64   26.70
   26.87   26.91   26.99   27.04   27.12   27.21   27.23   27.35   27.44
   27.51   27.61   27.66   27.76   27.84   27.89   27.95   28.00   28.08
   28.14   28.19   28.20   28.29   28.38   28.46   28.55   28.59   28.63
   28.80   28.89   28.93   28.94   29.02   29.09   29.20   29.21   29.27
   29.37   29.40   29.57   29.66   29.73   29.77   29.90   29.92   29.97
   30.02   30.19   30.28   30.35   30.43   30.45   30.52   30.55   30.63
   30.72   30.81   30.90   30.90   30.99   31.06   31.09   31.16   31.26
   31.32   31.38   31.45   31.55   31.61   31.68   31.78   31.88   31.89
   31.98   32.00   32.10   32.14   32.21   32.27   32.44   32.48   32.51
   32.60   32.65   32.78   32.86   33.00   33.02   33.05   33.07   33.12
   33.27   33.33   33.41   33.47   33.58   33.62   33.67   33.80   33.83
   33.86   33.95   33.95   34.06   34.08   34.20   34.30   34.35   34.44
   34.50   34.58   34.61   34.74   34.76   34.85   34.89   34.97   35.05
   35.08   35.13   35.20   35.23   35.27   35.37   35.49   35.51   35.55
   35.70   35.74   35.84   35.85   35.90   36.00   36.02   36.15   36.17
   36.27   36.36   36.42   36.47   36.51   36.61   36.64   36.74   36.78
   36.92   36.98   37.00   37.08   37.12   37.17   37.25   37.32   37.44
   37.54   37.62   37.70   37.77   37.86   37.98   38.04   38.10   38.18
   38.22   38.30   38.42   38.44   38.52   38.54   38.61   38.69   38.73
   38.77   38.90   38.91   38.98   39.12   39.13   39.24   39.26   39.31
   39.44   39.51   39.68   39.79   39.87   39.90   39.94   40.06   40.08
   40.16   40.19   40.26   40.32   40.38   40.47   40.47   40.62   40.68
   40.80   40.84   40.87   41.09   41.16   41.21   41.24   41.30   41.32
   41.39   41.48   41.56   41.65   41.78   41.80   41.84   41.93   41.97
   42.02   42.08   42.22   42.26   42.35   42.41   42.44   42.52   42.62
   42.71   42.75   42.85   42.90   42.95   42.95   43.05   43.09   43.12
   43.20   43.33   43.39   43.47   43.51   43.67   43.78   43.83   43.92
   43.97   44.04   44.10   44.25   44.27   44.37   44.42   44.49   44.60
   44.73   44.76   44.85   44.89   44.94   45.00   45.04   45.25   45.34
   45.37   45.45   45.48   45.51   45.64   45.66   45.74   45.90   45.93
   45.99   46.08   46.17   46.23   46.28   46.36   46.45   46.58   46.62
   46.66   46.72   46.77   46.94   46.95   47.01   47.10   47.19   47.32
   47.33   47.40   47.48   47.56   47.73   47.75   47.82   47.86   47.99
   48.03   48.10   48.16   48.36   48.37   48.45   48.49   48.53   48.71
   48.84   48.92   48.97   49.01   49.10   49.18   49.19   49.35   49.37
   49.48   49.55   49.67   49.69   49.71   49.83   49.92   50.01   50.06
   50.13   50.26   50.28   50.37   50.42   50.53   50.56   50.73   50.81
   50.87   50.99   51.00   51.06   51.15   51.20   51.36   51.46   51.49
   51.53   51.64   51.73   51.90   51.96   52.00   52.06   52.16   52.27
   52.33   52.46   52.49   52.56   52.66   52.69   52.80   52.85   52.95
   53.00   53.03   53.16   53.27   53.34   53.47   53.51   53.61   53.66
   53.83   53.98   53.99   54.04   54.17   54.33   54.40   54.45   54.53
   54.61   54.72   54.75   54.77   54.97   55.01   55.15   55.16   55.24
   55.42   55.43   55.59   55.66   55.69   55.73   55.74   55.83   55.95
   56.03   56.19   56.24   56.28   56.39   56.45   56.51   56.60   56.74
   56.84   56.92   57.11   57.23   57.29   57.42   57.51   57.66   57.71
   57.77   57.86   57.95   58.01   58.04   58.07   58.18   58.26   58.38
   58.49   58.67   58.70   58.82   58.96   59.07   59.07   59.16   59.19
   59.38   59.48   59.56   59.59   59.66   59.72   59.97   59.98   60.06
   60.12   60.22   60.31   60.45   60.50   60.53   60.70   60.74   60.79
   60.90   61.03   61.13   61.21   61.26   61.29   61.41   61.48   61.56
   61.69   61.75   61.85   62.04   62.07   62.16   62.20   62.37   62.54
   62.58   62.70   62.82   62.87   63.01   63.11   63.21   63.28   63.39
   63.47   63.55   63.63   63.78   63.86   63.95   64.01   64.10   64.21
   64.27   64.37   64.47   64.49   64.65   64.68   64.85   65.06   65.13
   65.27   65.41   65.50   65.59   65.71   65.89   66.04   66.18   66.33
   66.39   66.47   66.57   66.73   66.81   66.96   67.02   67.25   67.40
   67.51   67.74   67.81   67.89   67.97   68.13   68.31   68.43   68.83
   68.93   68.99   69.21   69.28   69.45   69.57   69.82   69.85   70.03
   70.11   70.20   70.39   70.53   70.61   70.88   71.10   71.31   71.68
   71.80   71.97   72.27   72.79   72.86   73.37   73.41   73.68   73.82
   74.03   74.15   74.30   74.64   75.29   75.42   76.21   76.34   76.59
   76.85   76.91   77.44   77.67   78.03   78.30   78.51   79.47   81.23
   82.44   82.85   86.35



  Thermal conductivity: 

  Lorentzian broadening factor =     0.1126 cm-1

--------------------------------------------------------------------------------
 Mode    : Frequency              Mode diffusivity        Thermal conductivity  
         :   (cm-1)                  (cm**2/s)                  (W/m.K)         
--------------------------------------------------------------------------------
     4        3.2488                0.0000000000             0.0000000000
     5        5.1862                0.0007644680             0.0001064401
     6        5.4569                0.0009522717             0.0001325888
     7        5.7083                0.0006642520             0.0000924866
     8        6.0151                0.0004047943             0.0000563611
     9        6.4081                0.0004666418             0.0000649724
    10        6.8003                0.0005000538             0.0000696244
    11        7.3188                0.0001825757             0.0000254207
    12        7.6710                0.0003745178             0.0000521454
    13        7.9783                0.0008472610             0.0001179670
    14        8.1475                0.0010291671             0.0001432944
    15        8.2191                0.0009528572             0.0001326694
    16        8.5986                0.0007292237             0.0001015321
    17        8.8738                0.0008721617             0.0001214337
    18        9.0923                0.0015968932             0.0002223401
    19        9.2290                0.0015371611             0.0002140233
    20        9.3613                0.0012222629             0.0001701791
    21        9.4507                0.0007002692             0.0000975004
    22        9.6690                0.0010956236             0.0001525466
    23        9.8863                0.0016958398             0.0002361161
    24       10.0113                0.0016124642             0.0002245074
    25       10.1881                0.0008666148             0.0001206609
    26       10.3873                0.0011708025             0.0001630136
    27       10.4680                0.0015123035             0.0002105615
    28       10.5745                0.0010327540             0.0001437926
    29       10.8945                0.0004346916             0.0000605230
    30       11.2211                0.0008263398             0.0001150529
    31       11.3569                0.0013481235             0.0001877017
    32       11.3839                0.0007290724             0.0001015101
    33       11.5723                0.0009364973             0.0001303901
    34       11.6977                0.0013239635             0.0001843376
    35       11.7997                0.0022230946             0.0003095249
    36       11.8976                0.0020277970             0.0002823332
    37       11.9702                0.0008491588             0.0001182296
    38       12.1049                0.0008890016             0.0001237769
    39       12.2953                0.0006685941             0.0000930892
    40       12.5022                0.0009207860             0.0001282021
    41       12.6796                0.0017325612             0.0002412263
    42       12.7482                0.0017497316             0.0002436169
    43       12.8859                0.0008852951             0.0001232605
    44       13.0523                0.0011032223             0.0001536025
    45       13.0979                0.0009210607             0.0001282400
    46       13.1829                0.0010579719             0.0001473022
    47       13.3850                0.0008823375             0.0001228484
    48       13.6068                0.0027852761             0.0003877953
    49       13.6327                0.0035766589             0.0004979798
    50       13.7874                0.0012877075             0.0001792880
    51       13.8422                0.0010602140             0.0001476139
    52       13.9318                0.0009522691             0.0001325847
    53       14.1487                0.0012636500             0.0001759381
    54       14.2196                0.0018680072             0.0002600828
    55       14.2912                0.0015342832             0.0002136183
    56       14.4047                0.0012005632             0.0001671543
    57       14.5736                0.0013326063             0.0001855385
    58       14.6063                0.0013743422             0.0001913494
    59       14.7859                0.0013942206             0.0001941169
    60       14.8498                0.0019888715             0.0002769098
    61       14.9445                0.0018355665             0.0002555651
    62       15.0550                0.0014929912             0.0002078684
    63       15.1376                0.0009323219             0.0001298066
    64       15.3363                0.0015214829             0.0002118349
    65       15.3974                0.0024401764             0.0003397439
    66       15.5421                0.0020477564             0.0002851073
    67       15.6118                0.0007644543             0.0001064343
    68       15.8944                0.0011852489             0.0001650208
    69       15.8990                0.0011812638             0.0001644660
    70       16.0994                0.0008722817             0.0001214466
    71       16.2330                0.0008883251             0.0001236802
    72       16.3434                0.0012552361             0.0001747646
    73       16.4385                0.0019379233             0.0002698140
    74       16.4812                0.0017891009             0.0002490936
    75       16.5685                0.0017669806             0.0002460137
    76       16.8152                0.0006405745             0.0000891860
    77       16.9997                0.0020194293             0.0002811610
    78       17.0352                0.0018411879             0.0002563448
    79       17.0825                0.0013290196             0.0001850366
    80       17.1520                0.0011819808             0.0001645646
    81       17.2791                0.0013038344             0.0001815299
    82       17.3799                0.0016612173             0.0002312874
    83       17.4122                0.0016717693             0.0002327565
    84       17.5865                0.0013972461             0.0001945351
    85       17.6470                0.0018416817             0.0002564126
    86       17.7104                0.0009111318             0.0001268545
    87       17.8077                0.0030175153             0.0004201205
    88       17.8513                0.0035510167             0.0004943983
    89       17.9730                0.0012745181             0.0001774475
    90       18.1029                0.0009438891             0.0001314149
    91       18.2112                0.0007547772             0.0001050853
    92       18.2749                0.0014385049             0.0002002786
    93       18.3894                0.0017489341             0.0002434985
    94       18.4176                0.0018355174             0.0002555531
    95       18.5997                0.0009117743             0.0001269432
    96       18.6645                0.0011796815             0.0001642430
    97       18.7388                0.0009131809             0.0001271390
    98       18.9320                0.0009128820             0.0001270972
    99       19.0626                0.0008946513             0.0001245589
   100       19.1274                0.0010209544             0.0001421435
   101       19.1678                0.0011559919             0.0001609442
   102       19.2801                0.0018091942             0.0002518868
   103       19.3069                0.0013549090             0.0001886385
   104       19.4110                0.0012295830             0.0001711897
   105       19.4869                0.0008251957             0.0001148885
   106       19.5671                0.0006799311             0.0000946639
   107       19.7124                0.0012431477             0.0001730780
   108       19.7309                0.0012745351             0.0001774479
   109       19.7918                0.0020057690             0.0002792542
   110       19.9450                0.0018609975             0.0002590980
   111       19.9973                0.0019954054             0.0002778109
   112       20.1034                0.0020341889             0.0002832104
   113       20.1950                0.0014757329             0.0002054591
   114       20.2212                0.0015913656             0.0002215580
   115       20.3564                0.0013160294             0.0001832241
   116       20.5182                0.0012128848             0.0001688636
   117       20.5831                0.0012487106             0.0001738514
   118       20.6240                0.0012365221             0.0001721544
   119       20.6460                0.0009406272             0.0001309585
   120       20.7672                0.0016096937             0.0002241089
   121       20.8527                0.0015201451             0.0002116414
   122       20.9519                0.0011706775             0.0001629868
   123       21.0598                0.0016946499             0.0002359364
   124       21.1288                0.0009545614             0.0001328980
   125       21.1991                0.0013212784             0.0001839538
   126       21.2469                0.0022557689             0.0003140573
   127       21.3232                0.0019820309             0.0002759463
   128       21.5224                0.0010562297             0.0001470523
   129       21.5785                0.0014176229             0.0001973667
   130       21.6364                0.0012195952             0.0001697965
   131       21.6650                0.0019120127             0.0002661974
   132       21.8046                0.0016056600             0.0002235456
   133       21.8738                0.0024941371             0.0003472423
   134       21.9661                0.0022838214             0.0003179612
   135       22.0764                0.0015377666             0.0002140928
   136       22.0864                0.0012310943             0.0001713969
   137       22.1637                0.0015297033             0.0002129701
   138       22.2259                0.0016112911             0.0002243289
   139       22.3991                0.0010434154             0.0001452673
   140       22.4808                0.0010487471             0.0001460095
   141       22.5815                0.0014328089             0.0001994795
   142       22.6103                0.0032954219             0.0004587973
   143       22.6690                0.0034579111             0.0004814193
   144       22.7172                0.0021523976             0.0002996622
   145       22.8609                0.0012253502             0.0001705961
   146       22.9021                0.0015292373             0.0002129040
   147       23.0461                0.0010898346             0.0001517291
   148       23.1040                0.0012268272             0.0001708014
   149       23.1496                0.0014420708             0.0002007680
   150       23.1569                0.0015013351             0.0002090189
   151       23.2848                0.0018074263             0.0002516333
   152       23.3782                0.0021818183             0.0003037566
   153       23.4443                0.0018191828             0.0002532697
   154       23.5456                0.0025661413             0.0003572623
   155       23.5951                0.0022918980             0.0003190816
   156       23.6370                0.0019077879             0.0002656051
   157       23.6399                0.0015322981             0.0002133288
   158       23.7569                0.0013395028             0.0001864874
   159       23.8837                0.0012341989             0.0001718267
   160       23.9876                0.0022283711             0.0003102363
   161       24.0156                0.0023824440             0.0003316864
   162       24.0858                0.0012345342             0.0001718731
   163       24.1833                0.0009424506             0.0001312088
   164       24.2859                0.0009481521             0.0001320024
   165       24.3309                0.0016704683             0.0002325638
   166       24.4181                0.0017629865             0.0002454440
   167       24.4574                0.0019348526             0.0002693712
   168       24.5849                0.0013050336             0.0001816873
   169       24.6815                0.0010631310             0.0001480094
   170       24.7213                0.0014230338             0.0001981151
   171       24.7832                0.0014034631             0.0001953904
   172       24.9036                0.0014858512             0.0002068602
   173       24.9811                0.0014260485             0.0001985344
   174       25.0322                0.0013711702             0.0001908941
   175       25.0444                0.0014605091             0.0002033319
   176       25.0766                0.0019379961             0.0002698074
   177       25.1894                0.0017680890             0.0002461528
   178       25.3102                0.0016689703             0.0002323533
   179       25.3846                0.0014813894             0.0002062382
   180       25.4218                0.0015582830             0.0002169432
   181       25.4905                0.0017840905             0.0002483798
   182       25.5279                0.0009691969             0.0001349309
   183       25.6338                0.0011517069             0.0001603396
   184       25.6996                0.0010549954             0.0001468755
   185       25.8366                0.0009969443             0.0001387935
   186       25.9713                0.0013383499             0.0001863234
   187       26.0011                0.0014398393             0.0002004525
   188       26.1977                0.0015727096             0.0002189502
   189       26.2078                0.0018095869             0.0002519278
   190       26.2240                0.0009367603             0.0001304143
   191       26.2857                0.0015878665             0.0002210601
   192       26.3066                0.0014732416             0.0002051022
   193       26.4219                0.0012493351             0.0001739301
   194       26.4617                0.0017994294             0.0002505131
   195       26.5380                0.0025884563             0.0003603597
   196       26.5985                0.0014979682             0.0002085440
   197       26.6392                0.0023627735             0.0003289403
   198       26.7028                0.0008466842             0.0001178735
   199       26.8655                0.0008868907             0.0001234708
   200       26.9108                0.0009082316             0.0001264417
   201       26.9899                0.0007153186             0.0000995848
   202       27.0398                0.0015428981             0.0002147982
   203       27.1191                0.0011864234             0.0001651706
   204       27.2053                0.0016692841             0.0002323930
   205       27.2303                0.0016113439             0.0002243266
   206       27.3496                0.0009550664             0.0001329614
   207       27.4361                0.0015197747             0.0002115782
   208       27.5076                0.0011719770             0.0001631588
   209       27.6103                0.0008275309             0.0001152060
   210       27.6570                0.0011758494             0.0001636977
   211       27.7578                0.0013072446             0.0001819899
   212       27.8350                0.0010583847             0.0001473444
   213       27.8885                0.0016057390             0.0002235449
   214       27.9485                0.0020080150             0.0002795481
   215       27.9985                0.0024962535             0.0003475186
   216       28.0821                0.0017855665             0.0002485794
   217       28.1414                0.0012930118             0.0001800078
   218       28.1934                0.0016369682             0.0002278919
   219       28.2043                0.0018421592             0.0002564577
   220       28.2862                0.0020495933             0.0002853356
   221       28.3826                0.0015993861             0.0002226594
   222       28.4645                0.0012169665             0.0001694205
   223       28.5526                0.0016062186             0.0002236103
   224       28.5888                0.0021269248             0.0002961004
   225       28.6332                0.0019272768             0.0002683063
   226       28.7980                0.0008625356             0.0001200779
   227       28.8898                0.0015203773             0.0002116591
   228       28.9274                0.0013339477             0.0001857053
   229       28.9403                0.0011148794             0.0001552077
   230       29.0166                0.0016545333             0.0002303353
   231       29.0895                0.0012847413             0.0001788547
   232       29.1962                0.0017682146             0.0002461610
   233       29.2123                0.0014655937             0.0002040318
   234       29.2717                0.0011261915             0.0001567820
   235       29.3733                0.0010577365             0.0001472519
   236       29.4032                0.0010950634             0.0001524483
   237       29.5685                0.0008944939             0.0001245260
   238       29.6582                0.0008476951             0.0001180108
   239       29.7289                0.0012981872             0.0001807254
   240       29.7695                0.0013730270             0.0001911441
   241       29.8955                0.0012626543             0.0001757785
   242       29.9228                0.0010597414             0.0001475302
   243       29.9706                0.0014289977             0.0001989355
   244       30.0227                0.0010282855             0.0001431510
   245       30.1892                0.0009927312             0.0001382011
   246       30.2759                0.0017992036             0.0002504723
   247       30.3495                0.0020108713             0.0002799390
   248       30.4271                0.0017958261             0.0002500018
   249       30.4496                0.0017618675             0.0002452742
   250       30.5198                0.0013585883             0.0001891325
   251       30.5456                0.0011019368             0.0001534034
   252       30.6334                0.0010439832             0.0001453354
   253       30.7227                0.0014477101             0.0002015390
   254       30.8145                0.0019867219             0.0002765757
   255       30.8959                0.0040019323             0.0005571169
   256       30.9017                0.0022829469             0.0003178136
   257       30.9928                0.0017244613             0.0002400654
   258       31.0650                0.0012005350             0.0001671286
   259       31.0914                0.0015228755             0.0002120021
   260       31.1594                0.0023269757             0.0003239420
   261       31.2568                0.0015431799             0.0002148283
   262       31.3163                0.0012797802             0.0001781599
   263       31.3768                0.0017428826             0.0002426289
   264       31.4503                0.0017022380             0.0002369705
   265       31.5510                0.0009114834             0.0001268885
   266       31.6089                0.0017593394             0.0002449193
   267       31.6755                0.0017061045             0.0002375082
   268       31.7802                0.0020710299             0.0002883094
   269       31.8783                0.0032221042             0.0004485508
   270       31.8945                0.0031638084             0.0004404353
   271       31.9774                0.0021232519             0.0002955786
   272       31.9952                0.0020860699             0.0002904025
   273       32.0959                0.0013785709             0.0001919111
   274       32.1445                0.0010181430             0.0001417358
   275       32.2134                0.0012693585             0.0001767074
   276       32.2656                0.0013958015             0.0001943094
   277       32.4377                0.0009627883             0.0001340294
   278       32.4766                0.0009515517             0.0001324651
   279       32.5086                0.0013352245             0.0001858760
   280       32.6045                0.0014618540             0.0002035038
   281       32.6536                0.0013435844             0.0001870394
   282       32.7780                0.0008697744             0.0001210805
   283       32.8627                0.0015281636             0.0002127341
   284       33.0047                0.0018168948             0.0002529277
   285       33.0164                0.0023323958             0.0003246899
   286       33.0491                0.0020769676             0.0002891319
   287       33.0667                0.0022541966             0.0003138037
   288       33.1232                0.0019591898             0.0002727360
   289       33.2723                0.0009176563             0.0001277454
   290       33.3317                0.0012430704             0.0001730456
   291       33.4054                0.0012071029             0.0001680385
   292       33.4711                0.0014047204             0.0001955483
   293       33.5755                0.0016011783             0.0002228966
   294       33.6159                0.0015838140             0.0002204792
   295       33.6668                0.0012950865             0.0001802860
   296       33.8014                0.0016168372             0.0002250758
   297       33.8258                0.0016546078             0.0002303337
   298       33.8623                0.0018745241             0.0002609476
   299       33.9457                0.0014736111             0.0002051373
   300       33.9497                0.0021113638             0.0002939171
   301       34.0567                0.0012871432             0.0001791794
   302       34.0816                0.0015451206             0.0002150916
   303       34.2042                0.0012422242             0.0001729261
   304       34.2978                0.0017865594             0.0002487010
   305       34.3492                0.0015940102             0.0002218967
   306       34.4352                0.0011218962             0.0001561752
   307       34.5015                0.0015671891             0.0002181626
   308       34.5805                0.0009386182             0.0001306615
   309       34.6114                0.0011706152             0.0001629568
   310       34.7365                0.0015329737             0.0002133990
   311       34.7607                0.0012809171             0.0001783112
   312       34.8497                0.0013792516             0.0001919997
   313       34.8864                0.0009943649             0.0001384212
   314       34.9719                0.0017202359             0.0002394664
   315       35.0473                0.0018686690             0.0002601288
   316       35.0825                0.0019456016             0.0002708382
   317       35.1323                0.0018828290             0.0002620997
   318       35.1951                0.0024934835             0.0003471058
   319       35.2321                0.0020761747             0.0002890141
   320       35.2722                0.0013283408             0.0001849117
   321       35.3743                0.0010200380             0.0001419942
   322       35.4919                0.0012021087             0.0001673391
   323       35.5083                0.0010606646             0.0001476494
   324       35.5454                0.0011323511             0.0001576284
   325       35.7032                0.0013567980             0.0001888721
   326       35.7410                0.0013684158             0.0001904893
   327       35.8388                0.0012586209             0.0001752051
   328       35.8547                0.0010153993             0.0001413477
   329       35.9014                0.0011891005             0.0001655275
   330       35.9983                0.0010065626             0.0001401173
   331       36.0235                0.0007672796             0.0001068082
   332       36.1487                0.0011994083             0.0001669619
   333       36.1703                0.0010491046             0.0001460390
   334       36.2732                0.0011855723             0.0001650356
   335       36.3551                0.0018913057             0.0002632758
   336       36.4212                0.0015421542             0.0002146726
   337       36.4657                0.0020061505             0.0002792621
   338       36.5098                0.0013008413             0.0001810809
   339       36.6135                0.0014427756             0.0002008383
   340       36.6387                0.0016918412             0.0002355088
   341       36.7363                0.0011931849             0.0001660943
   342       36.7785                0.0008955789             0.0001246668
   343       36.9195                0.0030939154             0.0004306798
   344       36.9794                0.0025781635             0.0003588857
   345       36.9994                0.0023252812             0.0003236839
   346       37.0792                0.0010713934             0.0001491400
   347       37.1229                0.0012341245             0.0001717924
   348       37.1727                0.0010375392             0.0001444272
   349       37.2460                0.0010861599             0.0001511952
   350       37.3160                0.0009472182             0.0001318542
   351       37.4434                0.0009258643             0.0001288815
   352       37.5416                0.0010171151             0.0001415835
   353       37.6196                0.0012768114             0.0001777333
   354       37.6978                0.0007535555             0.0001048955
   355       37.7698                0.0012197637             0.0001697919
   356       37.8622                0.0010948203             0.0001523995
   357       37.9751                0.0018307954             0.0002548472
   358       38.0409                0.0011173178             0.0001555308
   359       38.1018                0.0020253549             0.0002819295
   360       38.1810                0.0013425718             0.0001868859
   361       38.2225                0.0018458322             0.0002569395
   362       38.2986                0.0014756226             0.0002054062
   363       38.4208                0.0011559990             0.0001609144
   364       38.4370                0.0015812653             0.0002201112
   365       38.5204                0.0013534775             0.0001884031
   366       38.5381                0.0014007763             0.0001949870
   367       38.6125                0.0013900745             0.0001934971
   368       38.6856                0.0012285474             0.0001710125
   369       38.7279                0.0014415217             0.0002006582
   370       38.7695                0.0012456505             0.0001733931
   371       38.9003                0.0014388997             0.0002002928
   372       38.9111                0.0020733921             0.0002886132
   373       38.9817                0.0017648500             0.0002456643
   374       39.1245                0.0015318502             0.0002132307
   375       39.1298                0.0010775798             0.0001499971
   376       39.2433                0.0015653723             0.0002178966
   377       39.2621                0.0016997804             0.0002366059
   378       39.3149                0.0021336974             0.0002970060
   379       39.4395                0.0009316729             0.0001296866
   380       39.5074                0.0008389830             0.0001167843
   381       39.6755                0.0009207468             0.0001281653
   382       39.7945                0.0008401366             0.0001169444
   383       39.8708                0.0010229682             0.0001423938
   384       39.8955                0.0012624565             0.0001757298
   385       39.9389                0.0014040107             0.0001954335
   386       40.0576                0.0012562972             0.0001748720
   387       40.0817                0.0012442927             0.0001732010
   388       40.1610                0.0017528111             0.0002439846
   389       40.1927                0.0015210072             0.0002117183
   390       40.2620                0.0011299445             0.0001572837
   391       40.3201                0.0016145015             0.0002247319
   392       40.3792                0.0014315614             0.0001992673
   393       40.4676                0.0012546602             0.0001746432
   394       40.4716                0.0018343797             0.0002553375
   395       40.6225                0.0020203314             0.0002812206
   396       40.6823                0.0015227024             0.0002119528
   397       40.7991                0.0017954664             0.0002499198
   398       40.8397                0.0012921249             0.0001798571
   399       40.8741                0.0012865617             0.0001790827
   400       41.0891                0.0009486204             0.0001320426
   401       41.1617                0.0016931459             0.0002356761
   402       41.2118                0.0021330039             0.0002969016
   403       41.2393                0.0018431826             0.0002565601
   404       41.2962                0.0016428144             0.0002286698
   405       41.3202                0.0021223336             0.0002954159
   406       41.3948                0.0015876654             0.0002209931
   407       41.4769                0.0009354143             0.0001302037
   408       41.5587                0.0013689897             0.0001905544
   409       41.6457                0.0011644467             0.0001620831
   410       41.7818                0.0016491548             0.0002295508
   411       41.7951                0.0015308294             0.0002130807
   412       41.8410                0.0012185488             0.0001696133
   413       41.9348                0.0013042461             0.0001815415
   414       41.9669                0.0015462445             0.0002152258
   415       42.0221                0.0017203524             0.0002394602
   416       42.0820                0.0016126516             0.0002244688
   417       42.2245                0.0019629699             0.0002732299
   418       42.2554                0.0017934418             0.0002496328
   419       42.3472                0.0011110238             0.0001546454
   420       42.4055                0.0012127491             0.0001688046
   421       42.4368                0.0009132345             0.0001271146
   422       42.5196                0.0012787288             0.0001779882
   423       42.6156                0.0013169817             0.0001833124
   424       42.7140                0.0014890797             0.0002072666
   425       42.7546                0.0011895865             0.0001655798
   426       42.8507                0.0028798808             0.0004008530
   427       42.9001                0.0018638814             0.0002594350
   428       42.9508                0.0031247004             0.0004349290
   429       42.9546                0.0013128551             0.0001827371
   430       43.0544                0.0017162225             0.0002388817
   431       43.0930                0.0017700115             0.0002463685
   432       43.1197                0.0010795405             0.0001502615
   433       43.1964                0.0010763677             0.0001498197
   434       43.3316                0.0012570785             0.0001749725
   435       43.3853                0.0011989072             0.0001668756
   436       43.4665                0.0010852567             0.0001510564
   437       43.5142                0.0009953308             0.0001385395
   438       43.6695                0.0012095560             0.0001683570
   439       43.7761                0.0014131546             0.0001966954
   440       43.8322                0.0012371550             0.0001721981
   441       43.9238                0.0014359445             0.0001998671
   442       43.9743                0.0014087315             0.0001960792
   443       44.0367                0.0017904143             0.0002492048
   444       44.1035                0.0010056237             0.0001399710
   445       44.2488                0.0012594862             0.0001753052
   446       44.2737                0.0011580209             0.0001611824
   447       44.3681                0.0013739779             0.0001912407
   448       44.4200                0.0014930632             0.0002078158
   449       44.4857                0.0008450965             0.0001176268
   450       44.5966                0.0013199491             0.0001837200
   451       44.7314                0.0009182592             0.0001278096
   452       44.7645                0.0013570976             0.0001888901
   453       44.8508                0.0013636137             0.0001897968
   454       44.8909                0.0018586976             0.0002587056
   455       44.9423                0.0017880311             0.0002488696
   456       45.0018                0.0021120241             0.0002939648
   457       45.0420                0.0014856245             0.0002067784
   458       45.2462                0.0011986583             0.0001668362
   459       45.3352                0.0018336111             0.0002552122
   460       45.3652                0.0015580323             0.0002168555
   461       45.4458                0.0014589895             0.0002030699
   462       45.4823                0.0016750773             0.0002331460
   463       45.5126                0.0018498634             0.0002574736
   464       45.6411                0.0011525205             0.0001604134
   465       45.6551                0.0015515941             0.0002159584
   466       45.7436                0.0015456019             0.0002151241
   467       45.8951                0.0009954517             0.0001385513
   468       45.9258                0.0015281883             0.0002126998
   469       45.9862                0.0014092209             0.0001961412
   470       46.0811                0.0011459563             0.0001594987
   471       46.1711                0.0014569063             0.0002027776
   472       46.2261                0.0011726051             0.0001632074
   473       46.2774                0.0015089629             0.0002100227
   474       46.3631                0.0014546591             0.0002024642
   475       46.4465                0.0011732566             0.0001632975
   476       46.5795                0.0009987933             0.0001390149
   477       46.6214                0.0009423156             0.0001311540
   478       46.6608                0.0016131456             0.0002245218
   479       46.7184                0.0012955880             0.0001803232
   480       46.7704                0.0014983792             0.0002085480
   481       46.9390                0.0013289400             0.0001849645
   482       46.9478                0.0017603276             0.0002450059
   483       47.0096                0.0013709487             0.0001908112
   484       47.0996                0.0012785768             0.0001779544
   485       47.1867                0.0010324380             0.0001436962
   486       47.3166                0.0016634421             0.0002315198
   487       47.3265                0.0013844461             0.0001926888
   488       47.3983                0.0010827908             0.0001507039
   489       47.4807                0.0010266935             0.0001428960
   490       47.5640                0.0007834989             0.0001090478
   491       47.7314                0.0010998977             0.0001530840
   492       47.7486                0.0011192101             0.0001557718
   493       47.8165                0.0009454425             0.0001315867
   494       47.8614                0.0011310400             0.0001574180
   495       47.9922                0.0014578373             0.0002029012
   496       48.0280                0.0012371687             0.0001721886
   497       48.0956                0.0010577036             0.0001472105
   498       48.1597                0.0006590975             0.0000917327
   499       48.3603                0.0012340372             0.0001717518
   500       48.3658                0.0012790617             0.0001780182
   501       48.4517                0.0014159092             0.0001970642
   502       48.4857                0.0013562183             0.0001887564
   503       48.5297                0.0007041967             0.0000980089
   504       48.7078                0.0008989516             0.0001251142
   505       48.8396                0.0012861421             0.0001790022
   506       48.9191                0.0008624827             0.0001200381
   507       48.9746                0.0006739529             0.0000937990
   508       49.0108                0.0012524336             0.0001743102
   509       49.1004                0.0014766502             0.0002055158
   510       49.1807                0.0012937247             0.0001800565
   511       49.1927                0.0009408648             0.0001309466
   512       49.3466                0.0009867827             0.0001373369
   513       49.3715                0.0009751836             0.0001357225
   514       49.4776                0.0006578728             0.0000915602
   515       49.5503                0.0010985467             0.0001528913
   516       49.6663                0.0009343297             0.0001300360
   517       49.6948                0.0009837896             0.0001369195
   518       49.7138                0.0010737473             0.0001494394
   519       49.8267                0.0008982674             0.0001250166
   520       49.9241                0.0007072794             0.0000984357
   521       50.0115                0.0009599910             0.0001336066
   522       50.0630                0.0007286198             0.0001014055
   523       50.1321                0.0010472142             0.0001457456
   524       50.2603                0.0007889385             0.0001097999
   525       50.2803                0.0009939168             0.0001383276
   526       50.3742                0.0019187943             0.0002670462
   527       50.4207                0.0011857952             0.0001650317
   528       50.5272                0.0013632166             0.0001897238
   529       50.5623                0.0006900374             0.0000960349
   530       50.7255                0.0007664931             0.0001066752
   531       50.8132                0.0012554261             0.0001747213
   532       50.8736                0.0008010595             0.0001114857
   533       50.9851                0.0013916459             0.0001936788
   534       50.9964                0.0016581216             0.0002307649
   535       51.0609                0.0020456793             0.0002847019
   536       51.1500                0.0018353370             0.0002554277
   537       51.1976                0.0016801043             0.0002338234
   538       51.3551                0.0009846445             0.0001370345
   539       51.4649                0.0008820995             0.0001227629
   540       51.4911                0.0011019164             0.0001533551
   541       51.5276                0.0011673026             0.0001624548
   542       51.6389                0.0010708376             0.0001490294
   543       51.7280                0.0005198710             0.0000723508
   544       51.8972                0.0010867830             0.0001512478
   545       51.9572                0.0015254775             0.0002123008
   546       51.9962                0.0010049234             0.0001398552
   547       52.0584                0.0016442332             0.0002288277
   548       52.1606                0.0007659409             0.0001065957
   549       52.2727                0.0006034129             0.0000839766
   550       52.3260                0.0006124627             0.0000852359
   551       52.4550                0.0008691488             0.0001209584
   552       52.4890                0.0008054439             0.0001120926
   553       52.5629                0.0011555805             0.0001608205
   554       52.6552                0.0012570378             0.0001749399
   555       52.6912                0.0014981201             0.0002084907
   556       52.7964                0.0011345546             0.0001578937
   557       52.8503                0.0008162279             0.0001135927
   558       52.9548                0.0014187316             0.0001974414
   559       53.0031                0.0012262838             0.0001706588
   560       53.0268                0.0014145036             0.0001968528
   561       53.1603                0.0009208115             0.0001281466
   562       53.2720                0.0007095404             0.0000987444
   563       53.3444                0.0008399324             0.0001168905
   564       53.4662                0.0009019151             0.0001255162
   565       53.5118                0.0008145268             0.0001133546
   566       53.6110                0.0007290900             0.0001014645
   567       53.6634                0.0005402066             0.0000751783
   568       53.8292                0.0007666374             0.0001066894
   569       53.9819                0.0018517940             0.0002577048
   570       53.9885                0.0014473412             0.0002014191
   571       54.0359                0.0012454903             0.0001733284
   572       54.1658                0.0007011066             0.0000975691
[...]
   602       56.6033                0.0006048642             0.0000841717
   603       56.7367                0.0006977281             0.0000970942
   604       56.8419                0.0010102061             0.0001405776
   605       56.9169                0.0006484928             0.0000902424
   606       57.1073                0.0009827995             0.0001367630
   607       57.2286                0.0011507969             0.0001601406
   608       57.2947                0.0006340865             0.0000882370
   609       57.4178                0.0006128007             0.0000852747
   610       57.5105                0.0006061694             0.0000843518
   611       57.6561                0.0005417675             0.0000753897
   612       57.7097                0.0008376719             0.0001165662
   613       57.7734                0.0011479008             0.0001597359
   614       57.8592                0.0008309839             0.0001156352
   615       57.9530                0.0013059836             0.0001817332
   616       58.0132                0.0014108592             0.0001963268
   617       58.0405                0.0014916507             0.0002075692
   618       58.0719                0.0015856128             0.0002206443
   619       58.1805                0.0015305450             0.0002129809
   620       58.2638                0.0009231662             0.0001284617
   621       58.3820                0.0008981511             0.0001249805
   622       58.4887                0.0006782449             0.0000943797
   623       58.6737                0.0006426881             0.0000894315
   624       58.7041                0.0009657049             0.0001343799
   625       58.8170                0.0003842462             0.0000534686
   626       58.9637                0.0007939827             0.0001104838
   627       59.0654                0.0007230856             0.0001006182
   628       59.0707                0.0008903947             0.0001238994
   629       59.1556                0.0008491312             0.0001181574
   630       59.1932                0.0009476355             0.0001318642
   631       59.3764                0.0008381162             0.0001166241
   632       59.4833                0.0009857308             0.0001371644
   633       59.5558                0.0012154291             0.0001691267
   634       59.5933                0.0010848442             0.0001509557
   635       59.6562                0.0008906140             0.0001239285
   636       59.7231                0.0011353721             0.0001579862
   637       59.9682                0.0010277365             0.0001430081
   638       59.9777                0.0010807521             0.0001503851
   639       60.0591                0.0013666221             0.0001901632
   640       60.1227                0.0011562815             0.0001608944
   641       60.2230                0.0010268298             0.0001428811
   642       60.3120                0.0006200782             0.0000862824
   643       60.4487                0.0005348736             0.0000744262
   644       60.5023                0.0008354209             0.0001162463
   645       60.5275                0.0006752658             0.0000939612
   646       60.6970                0.0010096458             0.0001404886
   647       60.7403                0.0007007905             0.0000975124
   648       60.7945                0.0006756671             0.0000940165
   649       60.8984                0.0006741586             0.0000938064
   650       61.0254                0.0007423350             0.0001032926
   651       61.1344                0.0008484640             0.0001180597
   652       61.2125                0.0009455116             0.0001315632
   653       61.2639                0.0013591885             0.0001891240
   654       61.2900                0.0012322466             0.0001714606
   655       61.4149                0.0009017379             0.0001254717
   656       61.4826                0.0010249765             0.0001426195
   657       61.5623                0.0007477170             0.0001040403
   658       61.6866                0.0004763772             0.0000662848
   659       61.7476                0.0007004451             0.0000974623
   660       61.8472                0.0006561983             0.0000913055
   661       62.0353                0.0006390066             0.0000889130
   662       62.0729                0.0009902603             0.0001377872
   663       62.1565                0.0010244371             0.0001425424
   664       62.1990                0.0006523240             0.0000907657
   665       62.3681                0.0003648758             0.0000507694
   666       62.5405                0.0005846951             0.0000813551
   667       62.5759                0.0004685932             0.0000652005
   668       62.6969                0.0005681067             0.0000790467
   669       62.8182                0.0004207445             0.0000585425
   670       62.8695                0.0004572644             0.0000636238
   671       63.0114                0.0008950715             0.0001245399
   672       63.1062                0.0012532288             0.0001743734
   673       63.2087                0.0004806114             0.0000668718
   674       63.2770                0.0004522926             0.0000629314
   675       63.3926                0.0004689437             0.0000652481
   676       63.4673                0.0005991335             0.0000833624
   677       63.5509                0.0003103176             0.0000431770
   678       63.6328                0.0004410226             0.0000613629
   679       63.7789                0.0004233945             0.0000589100
   680       63.8633                0.0004887421             0.0000680021
   681       63.9540                0.0007271737             0.0001011766
   682       64.0107                0.0009040481             0.0001257861
   683       64.1045                0.0005944177             0.0000827050
   684       64.2124                0.0013052732             0.0001816104
   685       64.2665                0.0009785530             0.0001361517
   686       64.3734                0.0005263862             0.0000732390
   687       64.4695                0.0005546598             0.0000771727
   688       64.4859                0.0006657881             0.0000926345
   689       64.6549                0.0007221431             0.0001004751
   690       64.6822                0.0007197816             0.0001001464
   691       64.8490                0.0001977438             0.0000275129
   692       65.0638                0.0001994544             0.0000277507
   693       65.1329                0.0002886028             0.0000401542
   694       65.2662                0.0004285031             0.0000596188
   695       65.4101                0.0004568824             0.0000635670
   696       65.4987                0.0004550110             0.0000633066
   697       65.5898                0.0003339108             0.0000464576
   698       65.7096                0.0003439409             0.0000478529
   699       65.8943                0.0002767692             0.0000385071
   700       66.0443                0.0002399956             0.0000333906
   701       66.1847                0.0002284374             0.0000317824
   702       66.3292                0.0003200439             0.0000445275
   703       66.3921                0.0006804959             0.0000946768
   704       66.4705                0.0006574670             0.0000914726
   705       66.5736                0.0004118276             0.0000572970
   706       66.7284                0.0003954440             0.0000550173
   707       66.8066                0.0005565745             0.0000774350
   708       66.9576                0.0005312528             0.0000739118
   709       67.0153                0.0005911002             0.0000822381
   710       67.2512                0.0003061363             0.0000425916
   711       67.4019                0.0002328993             0.0000324023
   712       67.5116                0.0002543916             0.0000353924
   713       67.7367                0.0003311490             0.0000460710
   714       67.8079                0.0004329645             0.0000602360
   715       67.8937                0.0005571055             0.0000775069
   716       67.9674                0.0004998143             0.0000695362
   717       68.1264                0.0002633742             0.0000366415
   718       68.3097                0.0003082584             0.0000428858
   719       68.4276                0.0001781894             0.0000247902
   720       68.8271                0.0002757969             0.0000383692
   721       68.9283                0.0003062546             0.0000426064
   722       68.9850                0.0002615752             0.0000363905
   723       69.2094                0.0004088303             0.0000568764
   724       69.2802                0.0004293253             0.0000597276
   725       69.4547                0.0002673943             0.0000371997
   726       69.5707                0.0002134150             0.0000296900
   727       69.8195                0.0002694705             0.0000374882
   728       69.8483                0.0002377075             0.0000330693
   729       70.0331                0.0002710310             0.0000377051
   730       70.1110                0.0002781197             0.0000386911
   731       70.2036                0.0002812135             0.0000391215
   732       70.3872                0.0001682025             0.0000233997
   733       70.5281                0.0003128118             0.0000435170
   734       70.6101                0.0002482435             0.0000345344
   735       70.8812                0.0000704412             0.0000097994
   736       71.0965                0.0000588393             0.0000081853
   737       71.3070                0.0000989963             0.0000137717
   738       71.6836                0.0002240355             0.0000311659
   739       71.8018                0.0002354956             0.0000327601
   740       71.9721                0.0001168078             0.0000162492
   741       72.2651                0.0000901514             0.0000125409
   742       72.7941                0.0001173208             0.0000163202
   743       72.8602                0.0001128183             0.0000156939
   744       73.3670                0.0003157338             0.0000439204
   745       73.4067                0.0002969090             0.0000413017
   746       73.6823                0.0001074467             0.0000149463
   747       73.8168                0.0000698512             0.0000097166
   748       74.0319                0.0001586607             0.0000220702
   749       74.1519                0.0002350619             0.0000326978
   750       74.3035                0.0001431217             0.0000199086
   751       74.6422                0.0000606734             0.0000084397
   752       75.2851                0.0000263891             0.0000036707
   753       75.4212                0.0000539875             0.0000075096
   754       76.2103                0.0001901224             0.0000264452
   755       76.3446                0.0001579884             0.0000219754
   756       76.5906                0.0000517440             0.0000071973
   757       76.8502                0.0002855032             0.0000397115
   758       76.9126                0.0002784600             0.0000387318
   759       77.4417                0.0000637832             0.0000088717
   760       77.6652                0.0000268471             0.0000037342
   761       78.0298                0.0000384483             0.0000053477
   762       78.3023                0.0000243700             0.0000033896
   763       78.5114                0.0000185373             0.0000025783
   764       79.4656                0.0000052418             0.0000007290
   765       81.2291                0.0000085185             0.0000011847
   766       82.4449                0.0000036845             0.0000005124
   767       82.8510                0.0000081928             0.0000011394
   768       86.3543                0.0000000000             0.0000000000
--------------------------------------------------------------------------------
  Thermal conductivity =     0.127575 W/(m.K) 
--------------------------------------------------------------------------------

--------------------------------------------------------------------------------
  Phonon properties (per mole of unit cells): Temperature =   1000.000 K
--------------------------------------------------------------------------------
  Zero point energy            =        1.930227 eV
  Entropy                      =        0.261023 eV/K
                               =    25184.763956 J/(mol.K)
  Helmholtz free-energy        =     -214.772534 eV
                               =   -20722.264631 kJmol-1
  Free energy (equipartition)  =     -214.783765 eV
  - T*S       (equipartition)  =     -261.012151 eV
  Uvib        (equipartition)  =       65.922621 eV
  Mean kinetic energy          =       33.101801 eV
  Heat capacity - const volume =        0.065900 eV/K
                               =     6358.358063 J/(mol.K)
--------------------------------------------------------------------------------

  Phonon density of states : 

--------------------------------------------------------------------------------
 Frequency (cm-1) Density of States                                             
--------------------------------------------------------------------------------
    0.00000 |**                                                            0.001
    1.34929 |                                                              0.000
    2.69857 |**                                                            0.001
    4.04786 |**                                                            0.001
    5.39715 |***********                                                   0.005
    6.74644 |***********                                                   0.005
    8.09572 |********************                                          0.009
    9.44501 |**********************                                        0.010
   10.79430 |****************************                                  0.013
   12.14358 |*************************                                     0.012
   13.49287 |**********************************                            0.016
   14.84216 |*******************************                               0.014
   16.19145 |*************************************                         0.017
   17.54073 |****************************************                      0.018
   18.89002 |************************************************              0.022
   20.23931 |******************************************                    0.020
   21.58859 |************************************************              0.022
   22.93788 |***************************************************           0.023
   24.28717 |******************************************************        0.025
   25.63646 |************************************************              0.022
   26.98574 |*********************************************************     0.026
   28.33503 |***************************************************           0.023
   29.68432 |******************************************************        0.025
   31.03361 |******************************************************        0.025
   32.38289 |******************************************************        0.025
   33.73218 |*********************************************************     0.026
   35.08147 |************************************************************  0.027
   36.43075 |******************************************************        0.025
   37.78004 |******************************************************        0.025
   39.12933 |*********************************************************     0.026
   40.47862 |************************************************              0.022
   41.82790 |************************************************************  0.027
   43.17719 |************************************************              0.022
   44.52648 |************************************************              0.022
   45.87576 |******************************************************        0.025
   47.22505 |***************************************************           0.023
   48.57434 |*********************************************                 0.021
   49.92363 |***************************************************           0.023
   51.27291 |*********************************************                 0.021
   52.62220 |******************************************                    0.020
   53.97149 |************************************************              0.022
   55.32077 |************************************************              0.022
   56.67006 |****************************************                      0.018
   58.01935 |****************************************                      0.018
   59.36864 |*********************************************                 0.021
   60.71792 |******************************************                    0.020
   62.06721 |****************************************                      0.018
   63.41650 |******************************************                    0.020
   64.76578 |****************************                                  0.013
   66.11507 |*******************************                               0.014
   67.46436 |**********************                                        0.010
   68.81365 |*******************************                               0.014
   70.16293 |********************                                          0.009
   71.51222 |*****************                                             0.008
   72.86151 |*****************                                             0.008
   74.21079 |***********                                                   0.005
   75.56008 |***********                                                   0.005
   76.90937 |***********                                                   0.005
   78.25866 |********                                                      0.004
   79.60794 |                                                              0.000
   80.95723 |**                                                            0.001
   82.30652 |*****                                                         0.003
   83.65581 |                                                              0.000
   85.00509 |**                                                            0.001
--------------------------------------------------------------------------------



  XYZ File written as gulp.xyz                                


  Time to end of properties =      28.1080 seconds


  Peak dynamic memory used =      10.73 MB 


  Timing analysis for GULP :

--------------------------------------------------------------------------------
  Task / Subroutine                                          Time (Seconds)
--------------------------------------------------------------------------------
  Calculation of real space energy and derivatives                0.0600
  Calculation of phonons                                         26.9360
  Calculation of scattering                                       0.0000
--------------------------------------------------------------------------------
  Total CPU time                                                 28.1080
--------------------------------------------------------------------------------


  Job Finished at 22:36.46 19th June       2013                               

