********************************************************************************
*                       GENERAL UTILITY LATTICE PROGRAM                        *
*                                 Julian Gale                                  *
*                      Nanochemistry Research Institute                        *
*                           Department of Chemistry                            *
*                    Curtin University, Western Australia                      *
********************************************************************************
* Version = 4.1.0 * Last modified =  13th June 2013                            *
********************************************************************************
*  single       - perform a single point run                                   *
*  phonon       - calculate phonons for final geometry                         *
*  thermal      - calculate thermal conductivity for final geometry            *
********************************************************************************

  Job Started  at 22:45.45 19th June       2013                               

  Number of CPUs =     1


  Total number of configurations input =   1

********************************************************************************
*  Input for Configuration =   1                                               *
********************************************************************************

  Formula = Ar256                                                       

  Number of irreducible atoms/shells =     256


  Total number atoms/shells =     256

  Dimensionality = 3               :  Bulk   



  Cartesian lattice vectors (Angstroms) :

       21.483900    0.000000    0.000000
        0.000000   21.483900    0.000000
        0.000000    0.000000   21.483900

  Cell parameters (Angstroms/Degrees):

  a =      21.4839    alpha =  90.0000
  b =      21.4839    beta  =  90.0000
  c =      21.4839    gamma =  90.0000

  Initial cell volume =        9916.065040 Angs**3

  Temperature of configuration =  1000.     K 

  Pressure of configuration =         0.000 GPa 

  Fractional coordinates of asymmetric unit :

--------------------------------------------------------------------------------
   No.  Atomic       x           y          z         Charge      Occupancy
        Label      (Frac)      (Frac)     (Frac)        (e)         (Frac)  
--------------------------------------------------------------------------------
      1 Ar    c    0.498420    0.342613    0.995727     0.00000    1.000000    
      2 Ar    c    0.819032    0.630435    0.617365     0.00000    1.000000    
      3 Ar    c    0.643919    0.102986    0.041318     0.00000    1.000000    
      4 Ar    c    0.978398    0.073293    0.727684     0.00000    1.000000    
      5 Ar    c    0.700227    0.132449    0.200386     0.00000    1.000000    
      6 Ar    c    0.790117    0.538170    0.479568     0.00000    1.000000    
      7 Ar    c    0.676665    0.535955    0.356698     0.00000    1.000000    
      8 Ar    c    0.646405    0.849832    0.942096     0.00000    1.000000    
      9 Ar    c    0.107862    0.300388    0.268103     0.00000    1.000000    
     10 Ar    c    0.187631    0.550328    0.853076     0.00000    1.000000    
     11 Ar    c    0.851493    0.398066    0.170143     0.00000    1.000000    
     12 Ar    c    0.473396    0.074905    0.516666     0.00000    1.000000    
     13 Ar    c    0.968902    0.547936    0.309236     0.00000    1.000000    
     14 Ar    c    0.589004    0.957415    0.478824     0.00000    1.000000    
     15 Ar    c    0.939545    0.860672    0.110589     0.00000    1.000000    
     16 Ar    c    0.479173    0.407309    0.834620     0.00000    1.000000    
     17 Ar    c    0.866654    0.944405    0.364848     0.00000    1.000000    
     18 Ar    c    0.458981    0.088899    0.343327     0.00000    1.000000    
     19 Ar    c    0.807498    0.490377    0.886734     0.00000    1.000000    
     20 Ar    c    0.350193    0.427091    0.967385     0.00000    1.000000    
     21 Ar    c    0.237545    0.126725    0.926666     0.00000    1.000000    
     22 Ar    c    0.280481    0.732800    0.570045     0.00000    1.000000    
     23 Ar    c    0.924432    0.215421    0.872523     0.00000    1.000000    
     24 Ar    c    0.568970    0.077532    0.813684     0.00000    1.000000    
     25 Ar    c    0.686714    0.366573    0.264418     0.00000    1.000000    
     26 Ar    c    0.722890    0.334953    0.697648     0.00000    1.000000    
     27 Ar    c    0.774687    0.739335    0.937218     0.00000    1.000000    
     28 Ar    c    0.939862    0.031460    0.044624     0.00000    1.000000    
     29 Ar    c    0.601474    0.564474    0.060838     0.00000    1.000000    
     30 Ar    c    0.242228    0.320063    0.385470     0.00000    1.000000    
     31 Ar    c    0.126239    0.149847    0.333813     0.00000    1.000000    
     32 Ar    c    0.395487    0.628270    0.651088     0.00000    1.000000    
     33 Ar    c    0.576567    0.652987    0.209138     0.00000    1.000000    
     34 Ar    c    0.942571    0.029297    0.552176     0.00000    1.000000    
     35 Ar    c    0.812846    0.647862    0.792319     0.00000    1.000000    
     36 Ar    c    0.193091    0.817687    0.014319     0.00000    1.000000    
     37 Ar    c    0.354512    0.331788    0.104515     0.00000    1.000000    
     38 Ar    c    0.105055    0.989048    0.297683     0.00000    1.000000    
     39 Ar    c    0.562989    0.490474    0.477385     0.00000    1.000000    
     40 Ar    c    0.390280    0.687110    0.815062     0.00000    1.000000    
     41 Ar    c    0.682106    0.767631    0.636751     0.00000    1.000000    
     42 Ar    c    0.965388    0.377129    0.305644     0.00000    1.000000    
     43 Ar    c    0.258182    0.899585    0.510904     0.00000    1.000000    
     44 Ar    c    0.534344    0.535717    0.635755     0.00000    1.000000    
     45 Ar    c    0.961781    0.933992    0.831376     0.00000    1.000000    
     46 Ar    c    0.252232    0.182899    0.633316     0.00000    1.000000    
     47 Ar    c    0.446795    0.111637    0.051183     0.00000    1.000000    
     48 Ar    c    0.428311    0.460261    0.368806     0.00000    1.000000    
     49 Ar    c    0.418244    0.562053    0.233605     0.00000    1.000000    
     50 Ar    c    0.840159    0.890188    0.527428     0.00000    1.000000    
     51 Ar    c    0.654727    0.624598    0.531700     0.00000    1.000000    
     52 Ar    c    0.505681    0.805547    0.178151     0.00000    1.000000    
     53 Ar    c    0.025033    0.210325    0.470012     0.00000    1.000000    
     54 Ar    c    0.122766    0.072180    0.037809     0.00000    1.000000    
     55 Ar    c    0.267947    0.680207    0.114213     0.00000    1.000000    
     56 Ar    c    0.619455    0.936208    0.106645     0.00000    1.000000    
     57 Ar    c    0.363899    0.220406    0.505872     0.00000    1.000000    
     58 Ar    c    0.928961    0.627256    0.470231     0.00000    1.000000    
     59 Ar    c    0.117632    0.965248    0.764228     0.00000    1.000000    
     60 Ar    c    0.657232    0.747676    0.806627     0.00000    1.000000    
     61 Ar    c    0.450861    0.956367    0.110502     0.00000    1.000000    
     62 Ar    c    0.202760    0.679783    0.423071     0.00000    1.000000    
     63 Ar    c    0.926173    0.191413    0.610876     0.00000    1.000000    
     64 Ar    c    0.523075    0.608930    0.361841     0.00000    1.000000    
     65 Ar    c    0.820093    0.633619    0.335602     0.00000    1.000000    
     66 Ar    c    0.086279    0.367382    0.429321     0.00000    1.000000    
     67 Ar    c    0.910966    0.478084    0.028333     0.00000    1.000000    
     68 Ar    c    0.599812    0.787636    0.492215     0.00000    1.000000    
     69 Ar    c    0.612854    0.391340    0.113324     0.00000    1.000000    
     70 Ar    c    0.774073    0.734015    0.493369     0.00000    1.000000    
     71 Ar    c    0.877634    0.309980    0.016574     0.00000    1.000000    
     72 Ar    c    0.025771    0.237403    0.736519     0.00000    1.000000    
     73 Ar    c    0.869535    0.154522    0.157049     0.00000    1.000000    
     74 Ar    c    0.311009    0.598802    0.968618     0.00000    1.000000    
     75 Ar    c    0.758833    0.841868    0.084146     0.00000    1.000000    
     76 Ar    c    0.629090    0.079294    0.355843     0.00000    1.000000    
     77 Ar    c    0.307970    0.511523    0.116477     0.00000    1.000000    
     78 Ar    c    0.426141    0.806483    0.521460     0.00000    1.000000    
     79 Ar    c    0.822909    0.461528    0.322751     0.00000    1.000000    
     80 Ar    c    0.355969    0.046062    0.213793     0.00000    1.000000    
     81 Ar    c    0.136875    0.465390    0.288123     0.00000    1.000000    
     82 Ar    c    0.492722    0.655966    0.518756     0.00000    1.000000    
     83 Ar    c    0.225439    0.021572    0.632511     0.00000    1.000000    
     84 Ar    c    0.195512    0.186523    0.477972     0.00000    1.000000    
     85 Ar    c    0.420380    0.196510    0.204060     0.00000    1.000000    
     86 Ar    c    0.303982    0.854323    0.824776     0.00000    1.000000    
     87 Ar    c    0.863046    0.897560    0.963382     0.00000    1.000000    
     88 Ar    c    0.044296    0.729774    0.406486     0.00000    1.000000    
     89 Ar    c    0.540484    0.364041    0.680384     0.00000    1.000000    
     90 Ar    c    0.037344    0.073664    0.891007     0.00000    1.000000    
     91 Ar    c    0.564395    0.037349    0.652624     0.00000    1.000000    
     92 Ar    c    0.985664    0.059130    0.388745     0.00000    1.000000    
     93 Ar    c    0.541764    0.989588    0.956735     0.00000    1.000000    
     94 Ar    c    0.723002    0.389457    0.436365     0.00000    1.000000    
     95 Ar    c    0.919670    0.771936    0.840872     0.00000    1.000000    
     96 Ar    c    0.828653    0.402783    0.572801     0.00000    1.000000    
     97 Ar    c    0.753611    0.423768    0.033878     0.00000    1.000000    
     98 Ar    c    0.124281    0.798398    0.543030     0.00000    1.000000    
     99 Ar    c    0.674133    0.597042    0.886436     0.00000    1.000000    
    100 Ar    c    0.664777    0.704407    0.356998     0.00000    1.000000    
    101 Ar    c    0.150524    0.557985    0.142630     0.00000    1.000000    
    102 Ar    c    0.269624    0.980078    0.352520     0.00000    1.000000    
    103 Ar    c    0.224837    0.306071    0.985505     0.00000    1.000000    
    104 Ar    c    0.907563    0.625198    0.935556     0.00000    1.000000    
    105 Ar    c    0.375720    0.243717    0.941905     0.00000    1.000000    
    106 Ar    c    0.950749    0.517122    0.619250     0.00000    1.000000    
    107 Ar    c    0.237118    0.569254    0.562891     0.00000    1.000000    
    108 Ar    c    0.079271    0.948869    0.601190     0.00000    1.000000    
    109 Ar    c    0.616289    0.303302    0.826805     0.00000    1.000000    
    110 Ar    c    0.966133    0.205197    0.311294     0.00000    1.000000    
    111 Ar    c    0.198234    0.959630    0.917818     0.00000    1.000000    
    112 Ar    c    0.915113    0.993400    0.213000     0.00000    1.000000    
    113 Ar    c    0.747597    0.681869    0.189324     0.00000    1.000000    
    114 Ar    c    0.672122    0.610876    0.703918     0.00000    1.000000    
    115 Ar    c    0.007133    0.898477    0.452270     0.00000    1.000000    
    116 Ar    c    0.803066    0.491438    0.716229     0.00000    1.000000    
    117 Ar    c    0.977527    0.286210    0.159429     0.00000    1.000000    
    118 Ar    c    0.380658    0.933280    0.948631     0.00000    1.000000    
    119 Ar    c    0.714805    0.513990    0.183120     0.00000    1.000000    
    120 Ar    c    0.134221    0.228492    0.109538     0.00000    1.000000    
    121 Ar    c    0.091989    0.551278    0.424606     0.00000    1.000000    
    122 Ar    c    0.508767    0.210246    0.610764     0.00000    1.000000    
    123 Ar    c    0.224141    0.453362    0.703820     0.00000    1.000000    
    124 Ar    c    0.539674    0.690084    0.929594     0.00000    1.000000    
    125 Ar    c    0.633223    0.731720    0.067855     0.00000    1.000000    
    126 Ar    c    0.726958    0.035330    0.757041     0.00000    1.000000    
    127 Ar    c    0.124176    0.732069    0.704737     0.00000    1.000000    
    128 Ar    c    0.953123    0.768231    0.554708     0.00000    1.000000    
    129 Ar    c    0.485457    0.823324    0.843944     0.00000    1.000000    
    130 Ar    c    0.670288    0.283029    0.984398     0.00000    1.000000    
    131 Ar    c    0.393952    0.517425    0.521809     0.00000    1.000000    
    132 Ar    c    0.554252    0.934607    0.300959     0.00000    1.000000    
    133 Ar    c    0.251409    0.629076    0.721196     0.00000    1.000000    
    134 Ar    c    0.229965    0.917138    0.201668     0.00000    1.000000    
    135 Ar    c    0.945448    0.462177    0.455419     0.00000    1.000000    
    136 Ar    c    0.258325    0.591108    0.272235     0.00000    1.000000    
    137 Ar    c    0.993260    0.186760    0.024047     0.00000    1.000000    
    138 Ar    c    0.541229    0.188612    0.935636     0.00000    1.000000    
    139 Ar    c    0.073281    0.640168    0.564334     0.00000    1.000000    
    140 Ar    c    0.660141    0.817673    0.230234     0.00000    1.000000    
    141 Ar    c    0.563762    0.360860    0.375483     0.00000    1.000000    
    142 Ar    c    0.705514    0.162942    0.868599     0.00000    1.000000    
    143 Ar    c    0.351982    0.525114    0.821978     0.00000    1.000000    
    144 Ar    c    0.889252    0.781273    0.387004     0.00000    1.000000    
    145 Ar    c    0.496060    0.780147    0.356777     0.00000    1.000000    
    146 Ar    c    0.043405    0.519957    0.939848     0.00000    1.000000    
    147 Ar    c    0.614106    0.913321    0.779658     0.00000    1.000000    
    148 Ar    c    0.077599    0.946793    0.140291     0.00000    1.000000    
    149 Ar    c    0.780403    0.010631    0.097161     0.00000    1.000000    
    150 Ar    c    0.618123    0.444246    0.938391     0.00000    1.000000    
    151 Ar    c    0.578242    0.223413    0.277822     0.00000    1.000000    
    152 Ar    c    0.421995    0.941682    0.424464     0.00000    1.000000    
    153 Ar    c    0.136881    0.297525    0.586393     0.00000    1.000000    
    154 Ar    c    0.094979    0.563571    0.711496     0.00000    1.000000    
    155 Ar    c    0.943739    0.705370    0.233747     0.00000    1.000000    
    156 Ar    c    0.107668    0.463918    0.569082     0.00000    1.000000    
    157 Ar    c    0.257233    0.491121    0.411756     0.00000    1.000000    
    158 Ar    c    0.262168    0.253925    0.225946     0.00000    1.000000    
    159 Ar    c    0.134624    0.393667    0.865685     0.00000    1.000000    
    160 Ar    c    0.355305    0.760258    0.961925     0.00000    1.000000    
    161 Ar    c    0.342565    0.830492    0.111607     0.00000    1.000000    
    162 Ar    c    0.446699    0.963317    0.764479     0.00000    1.000000    
    163 Ar    c    0.891374    0.342993    0.723207     0.00000    1.000000    
    164 Ar    c    0.471991    0.539488    0.949958     0.00000    1.000000    
    165 Ar    c    0.185762    0.386243    0.142065     0.00000    1.000000    
    166 Ar    c    0.223191    0.714284    0.863568     0.00000    1.000000    
    167 Ar    c    0.017315    0.455513    0.161991     0.00000    1.000000    
    168 Ar    c    0.098596    0.232402    0.896676     0.00000    1.000000    
    169 Ar    c    0.538934    0.871955    0.631450     0.00000    1.000000    
    170 Ar    c    0.766444    0.592029    0.032696     0.00000    1.000000    
    171 Ar    c    0.650994    0.182092    0.698756     0.00000    1.000000    
    172 Ar    c    0.280987    0.002434    0.063624     0.00000    1.000000    
    173 Ar    c    0.097884    0.824459    0.850558     0.00000    1.000000    
    174 Ar    c    0.818762    0.187567    0.742295     0.00000    1.000000    
    175 Ar    c    0.717351    0.000000    0.929813     0.00000    1.000000    
    176 Ar    c    0.156411    0.853895    0.382336     0.00000    1.000000    
    177 Ar    c    0.411360    0.087033    0.882777     0.00000    1.000000    
    178 Ar    c    0.679560    0.467224    0.598453     0.00000    1.000000    
    179 Ar    c    0.707842    0.223793    0.400694     0.00000    1.000000    
    180 Ar    c    0.475994    0.224109    0.781604     0.00000    1.000000    
    181 Ar    c    0.050359    0.403463    0.719837     0.00000    1.000000    
    182 Ar    c    0.310455    0.191381    0.792305     0.00000    1.000000    
    183 Ar    c    0.877527    0.309268    0.436112     0.00000    1.000000    
    184 Ar    c    0.819888    0.271017    0.280243     0.00000    1.000000    
    185 Ar    c    0.723793    0.971942    0.255017     0.00000    1.000000    
    186 Ar    c    0.532869    0.712780    0.692393     0.00000    1.000000    
    187 Ar    c    0.088560    0.125291    0.604751     0.00000    1.000000    
    188 Ar    c    0.859830    0.060358    0.863172     0.00000    1.000000    
    189 Ar    c    0.404442    0.286843    0.352995     0.00000    1.000000    
    190 Ar    c    0.397275    0.103689    0.676251     0.00000    1.000000    
    191 Ar    c    0.700436    0.936189    0.615228     0.00000    1.000000    
    192 Ar    c    0.829319    0.833657    0.238558     0.00000    1.000000    
    193 Ar    c    0.445560    0.660820    0.083554     0.00000    1.000000    
    194 Ar    c    0.949311    0.529420    0.794628     0.00000    1.000000    
    195 Ar    c    0.300374    0.148260    0.347819     0.00000    1.000000    
    196 Ar    c    0.871909    0.564758    0.173118     0.00000    1.000000    
    197 Ar    c    0.786654    0.321834    0.862967     0.00000    1.000000    
    198 Ar    c    0.543286    0.071721    0.192996     0.00000    1.000000    
    199 Ar    c    0.388745    0.802731    0.688990     0.00000    1.000000    
    200 Ar    c    0.498466    0.828388    0.015367     0.00000    1.000000    
    201 Ar    c    0.749319    0.018488    0.457619     0.00000    1.000000    
    202 Ar    c    0.045534    0.920810    0.978575     0.00000    1.000000    
    203 Ar    c    0.457318    0.359895    0.521525     0.00000    1.000000    
    204 Ar    c    0.145749    0.648905    0.997230     0.00000    1.000000    
    205 Ar    c    0.777997    0.876289    0.818180     0.00000    1.000000    
    206 Ar    c    0.644618    0.462857    0.774659     0.00000    1.000000    
    207 Ar    c    0.198125    0.089048    0.194150     0.00000    1.000000    
    208 Ar    c    0.309505    0.061619    0.494938     0.00000    1.000000    
    209 Ar    c    0.820503    0.100244    0.311468     0.00000    1.000000    
    210 Ar    c    0.563510    0.486485    0.248576     0.00000    1.000000    
    211 Ar    c    0.191318    0.475249    0.001778     0.00000    1.000000    
    212 Ar    c    0.184197    0.291606    0.744795     0.00000    1.000000    
    213 Ar    c    0.870340    0.714772    0.078013     0.00000    1.000000    
    214 Ar    c    0.521302    0.578084    0.796164     0.00000    1.000000    
    215 Ar    c    0.560201    0.230756    0.110299     0.00000    1.000000    
    216 Ar    c    0.393050    0.455783    0.677931     0.00000    1.000000    
    217 Ar    c    0.371353    0.293236    0.666173     0.00000    1.000000    
    218 Ar    c    0.478637    0.351111    0.218254     0.00000    1.000000    
    219 Ar    c    0.310884    0.416521    0.257248     0.00000    1.000000    
    220 Ar    c    0.838498    0.787571    0.683833     0.00000    1.000000    
    221 Ar    c    0.745679    0.274182    0.128309     0.00000    1.000000    
    222 Ar    c    0.860323    0.146720    0.462303     0.00000    1.000000    
    223 Ar    c    0.378680    0.720377    0.245680     0.00000    1.000000    
    224 Ar    c    0.962605    0.672043    0.700054     0.00000    1.000000    
    225 Ar    c    0.809443    0.153920    0.000000     0.00000    1.000000    
    226 Ar    c    0.006346    0.854831    0.279120     0.00000    1.000000    
    227 Ar    c    0.287238    0.019885    0.787255     0.00000    1.000000    
    228 Ar    c    0.055051    0.358883    0.020211     0.00000    1.000000    
    229 Ar    c    0.390343    0.891482    0.264987     0.00000    1.000000    
    230 Ar    c    0.005102    0.614833    0.085439     0.00000    1.000000    
    231 Ar    c    0.789629    0.083612    0.609042     0.00000    1.000000    
    232 Ar    c    0.957857    0.381639    0.878476     0.00000    1.000000    
    233 Ar    c    0.320488    0.800772    0.388935     0.00000    1.000000    
    234 Ar    c    0.098104    0.644757    0.273850     0.00000    1.000000    
    235 Ar    c    0.315962    0.358676    0.819604     0.00000    1.000000    
    236 Ar    c    0.140119    0.024057    0.463156     0.00000    1.000000    
    237 Ar    c    0.053887    0.661281    0.847155     0.00000    1.000000    
    238 Ar    c    0.216703    0.760272    0.256964     0.00000    1.000000    
    239 Ar    c    0.387811    0.951955    0.604387     0.00000    1.000000    
    240 Ar    c    0.363614    0.635215    0.402324     0.00000    1.000000    
    241 Ar    c    0.000000    0.841998    0.699831     0.00000    1.000000    
    242 Ar    c    0.981549    0.345018    0.573211     0.00000    1.000000    
    243 Ar    c    0.152349    0.126757    0.768073     0.00000    1.000000    
    244 Ar    c    0.864689    0.954012    0.689405     0.00000    1.000000    
    245 Ar    c    0.280734    0.384520    0.548397     0.00000    1.000000    
    246 Ar    c    0.643175    0.128182    0.531477     0.00000    1.000000    
    247 Ar    c    0.225723    0.861082    0.675636     0.00000    1.000000    
    248 Ar    c    0.293504    0.172883    0.080046     0.00000    1.000000    
    249 Ar    c    0.010391    0.756934    0.986376     0.00000    1.000000    
    250 Ar    c    0.621335    0.313572    0.541494     0.00000    1.000000    
    251 Ar    c    0.529341    0.211496    0.439593     0.00000    1.000000    
    252 Ar    c    0.466214    0.471418    0.101119     0.00000    1.000000    
    253 Ar    c    0.086977    0.762804    0.142293     0.00000    1.000000    
    254 Ar    c    0.717021    0.864042    0.390249     0.00000    1.000000    
    255 Ar    c    0.032033    0.112601    0.184133     0.00000    1.000000    
    256 Ar    c    0.771019    0.244999    0.564665     0.00000    1.000000    
--------------------------------------------------------------------------------


  Brillouin zone sampling points :

--------------------------------------------------------------------------------
  Point number          x          y          z            Weight
--------------------------------------------------------------------------------
        1           0.000000   0.000000   0.000000         1.0000
--------------------------------------------------------------------------------


********************************************************************************
*  General input information                                                   *
********************************************************************************

  Species output for all configurations : 

--------------------------------------------------------------------------------
  Species    Type    Atomic    Atomic    Charge       Radii (Angs)     Library
                     Number     Mass       (e)     Cova   Ionic  VDW   Symbol
--------------------------------------------------------------------------------
    Ar       Core       18      39.95   0.000000   0.000  0.000  0.000          
--------------------------------------------------------------------------------


  Lattice summation method               =    Ewald          (3-D)
                                         =    Parry          (2-D)
                                         =    Saunders et al (1-D)
  Accuracy factor for lattice sums       =   12.000


  Time limit = Infinity

  Maximum range for interatomic potentials =    100000.000000 Angstroms

  General interatomic potentials :

--------------------------------------------------------------------------------
Atom  Types   Potential         A         B         C         D     Cutoffs(Ang)
  1     2                                                            Min    Max 
--------------------------------------------------------------------------------
Ar   c Ar   c Lennard 12  6 0.995E+05  64.4      0.00      0.00     0.000  8.500
--------------------------------------------------------------------------------

********************************************************************************
*  Output for configuration   1                                                *
********************************************************************************


  Components of energy : 

--------------------------------------------------------------------------------
  Interatomic potentials     =         -19.69423482 eV
  Monopole - monopole (real) =           0.00000000 eV
  Monopole - monopole (recip)=           0.00000000 eV
  Monopole - monopole (total)=           0.00000000 eV
--------------------------------------------------------------------------------
  Total lattice energy       =         -19.69423482 eV
--------------------------------------------------------------------------------
  Total lattice energy       =           -1900.1926 kJ/(mole unit cells)
--------------------------------------------------------------------------------


  Elastic Constant Matrix: (Units=GPa)

-------------------------------------------------------------------------------
  Indices      1         2         3         4         5         6    
-------------------------------------------------------------------------------
       1      3.3862    2.2967    1.9120   -0.1483    0.0528   -0.0623
       2      2.2967    3.7132    1.8664   -0.0649   -0.0715    0.2468
       3      1.9120    1.8664    3.4888    0.2074    0.0732    0.0729
       4     -0.1483   -0.0649    0.2074    0.5493   -0.0062   -0.0765
       5      0.0528   -0.0715    0.0732   -0.0062    0.6989    0.0830
       6     -0.0623    0.2468    0.0729   -0.0765    0.0830    0.6703
-------------------------------------------------------------------------------


  Elastic Compliance Matrix: (Units=1/GPa)

-------------------------------------------------------------------------------
  Indices      1         2         3         4         5         6    
-------------------------------------------------------------------------------
       1    0.628619 -0.300204 -0.201288  0.241064 -0.082083  0.228510
       2   -0.300204  0.530955 -0.116996 -0.004151  0.115988 -0.225497
       3   -0.201288 -0.116996  0.476711 -0.255806 -0.042875 -0.051343
       4    0.241064 -0.004151 -0.255806  2.021062 -0.007421  0.283261
       5   -0.082083  0.115988 -0.042875 -0.007421  1.480589 -0.229905
       6    0.228510 -0.225497 -0.051343  0.283261 -0.229905  1.662596
-------------------------------------------------------------------------------

  Mechanical properties :

-------------------------------------------------------------------------------
  Convention :                    Reuss         Voigt         Hill
-------------------------------------------------------------------------------
  Bulk  Modulus (GPa)     =       2.50432       2.52649       2.51540
  Shear Modulus (GPa)     =       0.61195       0.68457       0.64826
-------------------------------------------------------------------------------
  Velocity S-wave (km/s)  =       0.59775       0.63222       0.61523
  Velocity P-wave (km/s)  =       1.39235       1.41708       1.40477
-------------------------------------------------------------------------------
  Compressibility (1/GPa) =    0.39931061
-------------------------------------------------------------------------------
  Stress axis :                     x             y             z
-------------------------------------------------------------------------------
  Youngs Moduli (GPa)     =       1.59079       1.88340       2.09771
-------------------------------------------------------------------------------
  Poissons Ratio (x)      =                     0.56540       0.42224
  Poissons Ratio (y)      =       0.47756                     0.24542
  Poissons Ratio (z)      =       0.32021       0.22035
-------------------------------------------------------------------------------


  Piezoelectric Strain Matrix: (Units=C/m**2)

-------------------------------------------------------------------------------
  Indices      1         2         3         4         5         6    
-------------------------------------------------------------------------------
       x    -0.00000  -0.00000  -0.00000  -0.00000  -0.00000  -0.00000
       y    -0.00000  -0.00000  -0.00000  -0.00000  -0.00000  -0.00000
       z    -0.00000  -0.00000  -0.00000  -0.00000  -0.00000  -0.00000
-------------------------------------------------------------------------------


  Piezoelectric Stress Matrix: (Units=10**-11 C/N)

-------------------------------------------------------------------------------
  Indices      1         2         3         4         5         6    
-------------------------------------------------------------------------------
       x     0.00000   0.00000   0.00000   0.00000   0.00000   0.00000
       y     0.00000   0.00000   0.00000   0.00000   0.00000   0.00000
       z     0.00000   0.00000   0.00000   0.00000   0.00000   0.00000
-------------------------------------------------------------------------------


  Static dielectric constant tensor : 

-------------------------------------------------------------------------------
              x         y         z
-------------------------------------------------------------------------------
       x     1.00000   0.00000   0.00000
       y     0.00000   1.00000   0.00000
       z     0.00000   0.00000   1.00000
--------------------------------------------------------------------------------

  Static refractive indices : 

-------------------------------------------------------------------------------
    1 =    1.00000      2 =    1.00000      3 =    1.00000
-------------------------------------------------------------------------------


  Phonon Calculation : 

  Number of k points for this configuration =        1

--------------------------------------------------------------------------------
  K point      1 =   0.000000  0.000000  0.000000  Weight =    1.000
--------------------------------------------------------------------------------

 Frequencies (cm-1) : 

   -0.00   -0.00    0.00    3.25    5.19    5.46    5.71    6.02    6.41
    6.80    7.32    7.67    7.98    8.15    8.22    8.60    8.87    9.09
    9.23    9.36    9.45    9.67    9.89   10.01   10.19   10.39   10.47
   10.57   10.89   11.22   11.36   11.38   11.57   11.70   11.80   11.90
   11.97   12.10   12.30   12.50   12.68   12.75   12.89   13.05   13.10
   13.18   13.39   13.61   13.63   13.79   13.84   13.93   14.15   14.22
   14.29   14.40   14.57   14.61   14.79   14.85   14.94   15.06   15.14
   15.34   15.40   15.54   15.61   15.89   15.90   16.10   16.23   16.34
   16.44   16.48   16.57   16.82   17.00   17.04   17.08   17.15   17.28
   17.38   17.41   17.59   17.65   17.71   17.81   17.85   17.97   18.10
   18.21   18.27   18.39   18.42   18.60   18.66   18.74   18.93   19.06
   19.13   19.17   19.28   19.31   19.41   19.49   19.57   19.71   19.73
   19.79   19.94   20.00   20.10   20.20   20.22   20.36   20.52   20.58
   20.62   20.65   20.77   20.85   20.95   21.06   21.13   21.20   21.25
   21.32   21.52   21.58   21.64   21.66   21.80   21.87   21.97   22.08
   22.09   22.16   22.23   22.40   22.48   22.58   22.61   22.67   22.72
   22.86   22.90   23.05   23.10   23.15   23.16   23.28   23.38   23.44
   23.55   23.60   23.64   23.64   23.76   23.88   23.99   24.02   24.09
   24.18   24.29   24.33   24.42   24.46   24.58   24.68   24.72   24.78
   24.90   24.98   25.03   25.04   25.08   25.19   25.31   25.38   25.42
   25.49   25.53   25.63   25.70   25.84   25.97   26.00   26.20   26.21
   26.22   26.29   26.31   26.42   26.46   26.54   26.60   26.64   26.70
   26.87   26.91   26.99   27.04   27.12   27.21   27.23   27.35   27.44
   27.51   27.61   27.66   27.76   27.84   27.89   27.95   28.00   28.08
   28.14   28.19   28.20   28.29   28.38   28.46   28.55   28.59   28.63
   28.80   28.89   28.93   28.94   29.02   29.09   29.20   29.21   29.27
   29.37   29.40   29.57   29.66   29.73   29.77   29.90   29.92   29.97
   30.02   30.19   30.28   30.35   30.43   30.45   30.52   30.55   30.63
   30.72   30.81   30.90   30.90   30.99   31.06   31.09   31.16   31.26
   31.32   31.38   31.45   31.55   31.61   31.68   31.78   31.88   31.89
   31.98   32.00   32.10   32.14   32.21   32.27   32.44   32.48   32.51
   32.60   32.65   32.78   32.86   33.00   33.02   33.05   33.07   33.12
   33.27   33.33   33.41   33.47   33.58   33.62   33.67   33.80   33.83
   33.86   33.95   33.95   34.06   34.08   34.20   34.30   34.35   34.44
   34.50   34.58   34.61   34.74   34.76   34.85   34.89   34.97   35.05
   35.08   35.13   35.20   35.23   35.27   35.37   35.49   35.51   35.55
   35.70   35.74   35.84   35.85   35.90   36.00   36.02   36.15   36.17
   36.27   36.36   36.42   36.47   36.51   36.61   36.64   36.74   36.78
   36.92   36.98   37.00   37.08   37.12   37.17   37.25   37.32   37.44
   37.54   37.62   37.70   37.77   37.86   37.98   38.04   38.10   38.18
   38.22   38.30   38.42   38.44   38.52   38.54   38.61   38.69   38.73
   38.77   38.90   38.91   38.98   39.12   39.13   39.24   39.26   39.31
   39.44   39.51   39.68   39.79   39.87   39.90   39.94   40.06   40.08
   40.16   40.19   40.26   40.32   40.38   40.47   40.47   40.62   40.68
   40.80   40.84   40.87   41.09   41.16   41.21   41.24   41.30   41.32
   41.39   41.48   41.56   41.65   41.78   41.80   41.84   41.93   41.97
   42.02   42.08   42.22   42.26   42.35   42.41   42.44   42.52   42.62
   42.71   42.75   42.85   42.90   42.95   42.95   43.05   43.09   43.12
   43.20   43.33   43.39   43.47   43.51   43.67   43.78   43.83   43.92
   43.97   44.04   44.10   44.25   44.27   44.37   44.42   44.49   44.60
   44.73   44.76   44.85   44.89   44.94   45.00   45.04   45.25   45.34
   45.37   45.45   45.48   45.51   45.64   45.66   45.74   45.90   45.93
   45.99   46.08   46.17   46.23   46.28   46.36   46.45   46.58   46.62
   46.66   46.72   46.77   46.94   46.95   47.01   47.10   47.19   47.32
   47.33   47.40   47.48   47.56   47.73   47.75   47.82   47.86   47.99
   48.03   48.10   48.16   48.36   48.37   48.45   48.49   48.53   48.71
   48.84   48.92   48.97   49.01   49.10   49.18   49.19   49.35   49.37
   49.48   49.55   49.67   49.69   49.71   49.83   49.92   50.01   50.06
   50.13   50.26   50.28   50.37   50.42   50.53   50.56   50.73   50.81
   50.87   50.99   51.00   51.06   51.15   51.20   51.36   51.46   51.49
   51.53   51.64   51.73   51.90   51.96   52.00   52.06   52.16   52.27
   52.33   52.46   52.49   52.56   52.66   52.69   52.80   52.85   52.95
   53.00   53.03   53.16   53.27   53.34   53.47   53.51   53.61   53.66
   53.83   53.98   53.99   54.04   54.17   54.33   54.40   54.45   54.53
   54.61   54.72   54.75   54.77   54.97   55.01   55.15   55.16   55.24
   55.42   55.43   55.59   55.66   55.69   55.73   55.74   55.83   55.95
   56.03   56.19   56.24   56.28   56.39   56.45   56.51   56.60   56.74
   56.84   56.92   57.11   57.23   57.29   57.42   57.51   57.66   57.71
   57.77   57.86   57.95   58.01   58.04   58.07   58.18   58.26   58.38
   58.49   58.67   58.70   58.82   58.96   59.07   59.07   59.16   59.19
   59.38   59.48   59.56   59.59   59.66   59.72   59.97   59.98   60.06
   60.12   60.22   60.31   60.45   60.50   60.53   60.70   60.74   60.79
   60.90   61.03   61.13   61.21   61.26   61.29   61.41   61.48   61.56
   61.69   61.75   61.85   62.04   62.07   62.16   62.20   62.37   62.54
   62.58   62.70   62.82   62.87   63.01   63.11   63.21   63.28   63.39
   63.47   63.55   63.63   63.78   63.86   63.95   64.01   64.10   64.21
   64.27   64.37   64.47   64.49   64.65   64.68   64.85   65.06   65.13
   65.27   65.41   65.50   65.59   65.71   65.89   66.04   66.18   66.33
   66.39   66.47   66.57   66.73   66.81   66.96   67.02   67.25   67.40
   67.51   67.74   67.81   67.89   67.97   68.13   68.31   68.43   68.83
   68.93   68.99   69.21   69.28   69.45   69.57   69.82   69.85   70.03
   70.11   70.20   70.39   70.53   70.61   70.88   71.10   71.31   71.68
   71.80   71.97   72.27   72.79   72.86   73.37   73.41   73.68   73.82
   74.03   74.15   74.30   74.64   75.29   75.42   76.21   76.34   76.59
   76.85   76.91   77.44   77.67   78.03   78.30   78.51   79.47   81.23
   82.44   82.85   86.35



  Thermal conductivity: 

  Lorentzian broadening factor =     1.1259 cm-1

--------------------------------------------------------------------------------
 Mode    : Frequency              Mode diffusivity        Thermal conductivity  
         :   (cm-1)                  (cm**2/s)                  (W/m.K)         
--------------------------------------------------------------------------------
     4        3.2488               55.5419815982             7.7333688218
     5        5.1862               19.6783638579             2.7399025408
     6        5.4569                6.7024191331             0.9332059422
     7        5.7083                6.8464871846             0.9532646801
     8        6.0151                0.0013382263             0.0001863267
     9        6.4081                0.0016988403             0.0002365362
    10        6.8003                0.0019829596             0.0002760950
    11        7.3188                0.0010140395             0.0001411884
    12        7.6710                0.0014500777             0.0002018994
    13        7.9783                0.0016059236             0.0002235982
    14        8.1475                0.0018087223             0.0002518344
    15        8.2191                0.0020913875             0.0002911908
    16        8.5986                0.0015644656             0.0002178254
    17        8.8738                0.0016231120             0.0002259908
    18        9.0923                0.0020029444             0.0002788758
    19        9.2290                0.0016955692             0.0002360790
    20        9.3613                0.0017010231             0.0002368382
    21        9.4507                0.0015361026             0.0002138758
    22        9.6690                0.0021611038             0.0003008962
    23        9.8863                0.0023248339             0.0003236926
    24       10.0113                0.0021637539             0.0003012649
    25       10.1881                0.0019236198             0.0002678302
    26       10.3873                0.0016681094             0.0002322547
    27       10.4680                0.0021440835             0.0002985256
    28       10.5745                0.0018355359             0.0002555658
    29       10.8945                0.0015242742             0.0002122278
    30       11.2211                0.0017867422             0.0002487715
    31       11.3569                0.0018898791             0.0002631313
    32       11.3839                0.0011401198             0.0001587409
    33       11.5723                0.0018196118             0.0002533476
    34       11.6977                0.0019180630             0.0002670550
    35       11.7997                0.0017210231             0.0002396207
    36       11.8976                0.0019132925             0.0002663906
    37       11.9702                0.0016041128             0.0002233430
    38       12.1049                0.0017258418             0.0002402914
    39       12.2953                0.0016652571             0.0002318559
    40       12.5022                0.0017139607             0.0002386367
    41       12.6796                0.0016504209             0.0002297898
    42       12.7482                0.0016636444             0.0002316309
    43       12.8859                0.0015615534             0.0002174165
    44       13.0523                0.0016097751             0.0002241303
    45       13.0979                0.0016133491             0.0002246279
    46       13.1829                0.0014025284             0.0001952751
    47       13.3850                0.0016692750             0.0002324142
    48       13.6068                0.0014635505             0.0002037708
    49       13.6327                0.0020145932             0.0002804927
    50       13.7874                0.0015818904             0.0002202471
    51       13.8422                0.0017903493             0.0002492709
    52       13.9318                0.0016674360             0.0002321575
    53       14.1487                0.0017137716             0.0002386086
    54       14.2196                0.0015872940             0.0002209990
    55       14.2912                0.0016675525             0.0002321733
    56       14.4047                0.0016042104             0.0002233541
    57       14.5736                0.0018192070             0.0002532878
    58       14.6063                0.0015898450             0.0002213538
    59       14.7859                0.0015124423             0.0002105768
    60       14.8498                0.0020096554             0.0002798036
    61       14.9445                0.0016486727             0.0002295440
    62       15.0550                0.0015370847             0.0002140075
    63       15.1376                0.0014159948             0.0001971481
    64       15.3363                0.0014500511             0.0002018896
    65       15.3974                0.0020162003             0.0002807140
    66       15.5421                0.0019023795             0.0002648666
    67       15.6118                0.0016004967             0.0002228357
    68       15.8944                0.0020693254             0.0002881098
    69       15.8990                0.0017625960             0.0002454042
    70       16.0994                0.0016920486             0.0002355817
    71       16.2330                0.0015075748             0.0002098975
    72       16.3434                0.0014916032             0.0002076737
    73       16.4385                0.0017903914             0.0002492734
    74       16.4812                0.0017287510             0.0002406912
    75       16.5685                0.0018753387             0.0002611003
    76       16.8152                0.0014639469             0.0002038226
    77       16.9997                0.0016269262             0.0002265136
    78       17.0352                0.0015013700             0.0002090327
    79       17.0825                0.0015740602             0.0002191531
    80       17.1520                0.0016969228             0.0002362589
    81       17.2791                0.0013822341             0.0001924453
    82       17.3799                0.0017373364             0.0002418853
    83       17.4122                0.0017323093             0.0002411853
    84       17.5865                0.0015504524             0.0002158656
    85       17.6470                0.0016486944             0.0002295435
    86       17.7104                0.0013653811             0.0001900984
    87       17.8077                0.0019729263             0.0002746852
    88       17.8513                0.0019426296             0.0002704670
    89       17.9730                0.0014036751             0.0001954297
    90       18.1029                0.0017837603             0.0002483477
    91       18.2112                0.0014553625             0.0002026257
    92       18.2749                0.0016191334             0.0002254269
    93       18.3894                0.0014263170             0.0001985815
    94       18.4176                0.0016500769             0.0002297349
    95       18.5997                0.0015609037             0.0002173193
    96       18.6645                0.0013924623             0.0001938677
    97       18.7388                0.0014451823             0.0002012076
    98       18.9320                0.0015742529             0.0002191774
    99       19.0626                0.0016399620             0.0002283257
   100       19.1274                0.0014951027             0.0002081573
   101       19.1678                0.0014083410             0.0001960778
   102       19.2801                0.0015196958             0.0002115811
   103       19.3069                0.0013247528             0.0001844400
   104       19.4110                0.0016044189             0.0002233766
   105       19.4869                0.0013744543             0.0001913595
   106       19.5671                0.0012904913             0.0001796696
   107       19.7124                0.0015130752             0.0002106588
   108       19.7309                0.0014972417             0.0002084543
   109       19.7918                0.0018044428             0.0002512245
   110       19.9450                0.0016860574             0.0002347419
   111       19.9973                0.0015859736             0.0002208077
   112       20.1034                0.0015794786             0.0002199032
   113       20.1950                0.0018076691             0.0002516729
   114       20.2212                0.0017859726             0.0002486522
   115       20.3564                0.0014405866             0.0002005656
   116       20.5182                0.0014653273             0.0002040099
   117       20.5831                0.0016412235             0.0002284989
   118       20.6240                0.0017785698             0.0002476208
   119       20.6460                0.0013012116             0.0001811608
   120       20.7672                0.0018164415             0.0002528933
   121       20.8527                0.0014296926             0.0001990482
   122       20.9519                0.0015790130             0.0002198371
   123       21.0598                0.0020540312             0.0002859710
   124       21.1288                0.0016075499             0.0002238098
   125       21.1991                0.0014297592             0.0001990570
   126       21.2469                0.0016091352             0.0002240304
   127       21.3232                0.0019452088             0.0002708197
   128       21.5224                0.0015520482             0.0002160820
   129       21.5785                0.0015531765             0.0002162390
   130       21.6364                0.0014749764             0.0002053516
   131       21.6650                0.0018346758             0.0002554302
   132       21.8046                0.0018400622             0.0002561799
   133       21.8738                0.0018259289             0.0002542121
   134       21.9661                0.0018020203             0.0002508833
   135       22.0764                0.0014786427             0.0002058614
   136       22.0864                0.0016372254             0.0002279397
   137       22.1637                0.0014665178             0.0002041732
   138       22.2259                0.0020169471             0.0002808055
   139       22.3991                0.0018942260             0.0002637196
   140       22.4808                0.0015546803             0.0002164469
   141       22.5815                0.0016100231             0.0002241517
   142       22.6103                0.0024238476             0.0003374544
   143       22.6690                0.0021685662             0.0003019134
   144       22.7172                0.0024467429             0.0003406417
   145       22.8609                0.0017396241             0.0002421946
   146       22.9021                0.0023454197             0.0003265348
   147       23.0461                0.0014898158             0.0002074154
   148       23.1040                0.0017248930             0.0002401432
   149       23.1496                0.0015631526             0.0002176253
   150       23.1569                0.0017564673             0.0002445389
   151       23.2848                0.0021075906             0.0002934228
   152       23.3782                0.0019205572             0.0002673834
   153       23.4443                0.0019729161             0.0002746728
   154       23.5456                0.0017855752             0.0002485906
   155       23.5951                0.0021525484             0.0002996811
   156       23.6370                0.0017346488             0.0002415004
   157       23.6399                0.0022224187             0.0003094084
   158       23.7569                0.0014008696             0.0001950310
   159       23.8837                0.0018985600             0.0002643198
   160       23.9876                0.0016557085             0.0002305096
   161       24.0156                0.0023671282             0.0003295541
   162       24.0858                0.0018945058             0.0002637549
   163       24.1833                0.0018344078             0.0002553878
   164       24.2859                0.0016912654             0.0002354592
   165       24.3309                0.0016175095             0.0002251908
   166       24.4181                0.0017732323             0.0002468704
   167       24.4574                0.0021820102             0.0003037807
   168       24.5849                0.0019981707             0.0002781861
   169       24.6815                0.0015712926             0.0002187558
   170       24.7213                0.0018488431             0.0002573964
   171       24.7832                0.0018093673             0.0002519004
   172       24.9036                0.0016775898             0.0002335541
   173       24.9811                0.0015071979             0.0002098320
   174       25.0322                0.0014873314             0.0002070661
   175       25.0444                0.0017077332             0.0002377504
   176       25.0766                0.0020074757             0.0002794804
   177       25.1894                0.0021945132             0.0003055194
   178       25.3102                0.0015449326             0.0002150848
   179       25.3846                0.0017710883             0.0002465699
   180       25.4218                0.0017953360             0.0002499456
   181       25.4905                0.0016565963             0.0002306302
   182       25.5279                0.0015923576             0.0002216868
   183       25.6338                0.0018687852             0.0002601707
   184       25.6996                0.0018381617             0.0002559071
   185       25.8366                0.0015624308             0.0002175199
   186       25.9713                0.0017782914             0.0002475714
   187       26.0011                0.0017900635             0.0002492103
   188       26.1977                0.0015209101             0.0002117387
   189       26.2078                0.0015429272             0.0002148039
   190       26.2240                0.0014002236             0.0001949369
   191       26.2857                0.0016192282             0.0002254262
   192       26.3066                0.0013067381             0.0001819218
   193       26.4219                0.0017029467             0.0002370811
   194       26.4617                0.0016162574             0.0002250123
   195       26.5380                0.0024799773             0.0003452575
   196       26.5985                0.0016103033             0.0002241831
   197       26.6392                0.0016870665             0.0002348698
   198       26.7028                0.0013192300             0.0001836603
   199       26.8655                0.0015341759             0.0002135842
   200       26.9108                0.0015041840             0.0002094088
   201       26.9899                0.0013497001             0.0001879018
   202       27.0398                0.0016027430             0.0002231296
   203       27.1191                0.0018288357             0.0002546055
   204       27.2053                0.0018010878             0.0002507423
   205       27.2303                0.0019073716             0.0002655388
   206       27.3496                0.0015371961             0.0002140038
   207       27.4361                0.0018757127             0.0002611308
   208       27.5076                0.0013944916             0.0001941366
   209       27.6103                0.0012918074             0.0001798410
   210       27.6570                0.0018159676             0.0002528127
   211       27.7578                0.0016566912             0.0002306386
   212       27.8350                0.0014254458             0.0001984453
   213       27.8885                0.0018305883             0.0002548476
   214       27.9485                0.0016493601             0.0002296176
   215       27.9985                0.0019569983             0.0002724456
   216       28.0821                0.0015170333             0.0002111953
   217       28.1414                0.0014179337             0.0001973989
   218       28.1934                0.0017241417             0.0002400278
   219       28.2043                0.0017884465             0.0002489800
   220       28.2862                0.0016823237             0.0002342059
   221       28.3826                0.0014968285             0.0002083818
   222       28.4645                0.0014369244             0.0002000421
   223       28.5526                0.0016688770             0.0002323333
   224       28.5888                0.0015636071             0.0002176780
   225       28.6332                0.0015140638             0.0002107807
   226       28.7980                0.0013548017             0.0001886087
   227       28.8898                0.0018527375             0.0002579286
   228       28.9274                0.0014763493             0.0002055297
   229       28.9403                0.0014444512             0.0002010890
   230       29.0166                0.0018456080             0.0002569357
   231       29.0895                0.0015069084             0.0002097836
   232       29.1962                0.0018138688             0.0002525167
   233       29.2123                0.0018433999             0.0002566278
   234       29.2717                0.0014581397             0.0002029939
   235       29.3733                0.0015309995             0.0002131369
   236       29.4032                0.0016468843             0.0002292696
   237       29.5685                0.0016592011             0.0002309839
   238       29.6582                0.0013288628             0.0001849960
   239       29.7289                0.0014998230             0.0002087959
   240       29.7695                0.0016471947             0.0002293120
   241       29.8955                0.0016372273             0.0002279241
   242       29.9228                0.0014657448             0.0002040513
   243       29.9706                0.0015570454             0.0002167615
   244       30.0227                0.0013987595             0.0001947259
   245       30.1892                0.0015556342             0.0002165645
   246       30.2759                0.0016422430             0.0002286214
   247       30.3495                0.0015560713             0.0002166250
   248       30.4271                0.0015826555             0.0002203257
   249       30.4496                0.0013060452             0.0001818180
   250       30.5198                0.0016901824             0.0002352946
   251       30.5456                0.0015372865             0.0002140095
   252       30.6334                0.0016345816             0.0002275540
   253       30.7227                0.0017794718             0.0002477243
   254       30.8145                0.0016759778             0.0002333164
   255       30.8959                0.0022085622             0.0003074583
   256       30.9017                0.0015367059             0.0002139279
   257       30.9928                0.0018378583             0.0002558516
   258       31.0650                0.0014454649             0.0002012257
   259       31.0914                0.0016401651             0.0002283302
   260       31.1594                0.0019821444             0.0002759375
   261       31.2568                0.0015966574             0.0002222730
   262       31.3163                0.0014403526             0.0002005134
   263       31.3768                0.0018277485             0.0002544432
   264       31.4503                0.0020910165             0.0002910928
   265       31.5510                0.0015180655             0.0002113314
   266       31.6089                0.0017328443             0.0002412308
   267       31.6755                0.0016428746             0.0002287059
   268       31.7802                0.0018263615             0.0002542490
   269       31.8783                0.0019482413             0.0002712157
   270       31.8945                0.0018727312             0.0002607038
   271       31.9774                0.0018333403             0.0002552199
   272       31.9952                0.0017484351             0.0002434002
   273       32.0959                0.0014697157             0.0002045994
   274       32.1445                0.0014794881             0.0002059597
   275       32.2134                0.0015738456             0.0002190950
   276       32.2656                0.0016739089             0.0002330247
   277       32.4377                0.0015477806             0.0002154660
   278       32.4766                0.0017487008             0.0002434359
   279       32.5086                0.0014341199             0.0001996432
   280       32.6045                0.0015735758             0.0002190565
   281       32.6536                0.0015097042             0.0002101649
   282       32.7780                0.0013745350             0.0001913478
   283       32.8627                0.0017039444             0.0002372044
   284       33.0047                0.0018711158             0.0002604757
   285       33.0164                0.0018169862             0.0002529403
   286       33.0491                0.0017923972             0.0002495173
   287       33.0667                0.0016335115             0.0002273989
   288       33.1232                0.0018097793             0.0002519368
   289       33.2723                0.0014043022             0.0001954906
   290       33.3317                0.0015084436             0.0002099878
   291       33.4054                0.0015010691             0.0002089610
   292       33.4711                0.0017084329             0.0002378275
   293       33.5755                0.0017248431             0.0002401117
   294       33.6159                0.0016771118             0.0002334670
   295       33.6668                0.0015059282             0.0002096368
   296       33.8014                0.0017431714             0.0002426625
   297       33.8258                0.0016792065             0.0002337580
   298       33.8623                0.0014041084             0.0001954622
   299       33.9457                0.0014664929             0.0002041464
   300       33.9497                0.0017855345             0.0002485593
   301       34.0567                0.0014499077             0.0002018374
   302       34.0816                0.0015063757             0.0002096981
   303       34.2042                0.0014956472             0.0002082043
   304       34.2978                0.0016359024             0.0002277285
   305       34.3492                0.0016028156             0.0002231225
   306       34.4352                0.0017877204             0.0002488622
   307       34.5015                0.0017164250             0.0002389372
   308       34.5805                0.0016523925             0.0002300233
   309       34.6114                0.0015680925             0.0002182881
   310       34.7365                0.0017495689             0.0002435504
   311       34.7607                0.0016834783             0.0002343501
   312       34.8497                0.0015512812             0.0002159473
   313       34.8864                0.0014328787             0.0001994649
   314       34.9719                0.0016902760             0.0002352958
   315       35.0473                0.0017414160             0.0002424145
   316       35.0825                0.0017936248             0.0002496822
   317       35.1323                0.0016987166             0.0002364703
   318       35.1951                0.0017134816             0.0002385255
   319       35.2321                0.0019098359             0.0002658589
   320       35.2722                0.0014627744             0.0002036256
   321       35.3743                0.0015614241             0.0002173578
   322       35.4919                0.0016838969             0.0002344063
   323       35.5083                0.0012985734             0.0001807674
   324       35.5454                0.0018495821             0.0002574703
   325       35.7032                0.0015072215             0.0002098117
   326       35.7410                0.0015186489             0.0002114024
   327       35.8388                0.0015008760             0.0002089280
   328       35.8547                0.0017926058             0.0002495380
   329       35.9014                0.0016434495             0.0002287747
   330       35.9983                0.0015876569             0.0002210079
   331       36.0235                0.0012300874             0.0001712328
   332       36.1487                0.0016640739             0.0002316450
   333       36.1703                0.0014954293             0.0002081690
   334       36.2732                0.0016919171             0.0002355205
   335       36.3551                0.0017634188             0.0002454735
   336       36.4212                0.0015845722             0.0002205773
   337       36.4657                0.0019009933             0.0002646239
   338       36.5098                0.0015853187             0.0002206810
   339       36.6135                0.0015333437             0.0002134456
   340       36.6387                0.0017480114             0.0002433279
   341       36.7363                0.0015745867             0.0002191864
   342       36.7785                0.0012999244             0.0001809526
   343       36.9195                0.0018637544             0.0002594387
   344       36.9794                0.0019286573             0.0002684731
   345       36.9994                0.0018212732             0.0002535249
   346       37.0792                0.0015229326             0.0002119951
   347       37.1229                0.0013961472             0.0001943462
   348       37.1727                0.0014118964             0.0001965384
   349       37.2460                0.0016076237             0.0002237838
   350       37.3160                0.0015194769             0.0002115134
   351       37.4434                0.0014335706             0.0001995548
   352       37.5416                0.0015381351             0.0002141100
   353       37.6196                0.0015777186             0.0002196199
   354       37.6978                0.0014149351             0.0001969601
   355       37.7698                0.0017560295             0.0002444405
   356       37.8622                0.0015912837             0.0002215075
   357       37.9751                0.0015467939             0.0002153141
   358       38.0409                0.0014647034             0.0002038870
   359       38.1018                0.0017732720             0.0002468396
   360       38.1810                0.0011476136             0.0001597477
   361       38.2225                0.0015279740             0.0002126937
   362       38.2986                0.0015546296             0.0002164040
   363       38.4208                0.0014201536             0.0001976846
   364       38.4370                0.0016003222             0.0002227639
   365       38.5204                0.0014808628             0.0002061350
   366       38.5381                0.0015758494             0.0002193571
   367       38.6125                0.0011859944             0.0001650894
   368       38.6856                0.0014431959             0.0002008914
   369       38.7279                0.0015587728             0.0002169794
   370       38.7695                0.0013670022             0.0001902851
   371       38.9003                0.0015154903             0.0002109541
   372       38.9111                0.0017271635             0.0002404187
   373       38.9817                0.0019160492             0.0002667110
   374       39.1245                0.0015150148             0.0002108873
   375       39.1298                0.0016645095             0.0002316966
   376       39.2433                0.0016527033             0.0002300529
   377       39.2621                0.0014879947             0.0002071257
   378       39.3149                0.0020130619             0.0002802138
   379       39.4395                0.0013029390             0.0001813659
   380       39.5074                0.0014505962             0.0002019193
   381       39.6755                0.0014635484             0.0002037217
   382       39.7945                0.0014369361             0.0002000170
   383       39.8708                0.0014240237             0.0001982195
   384       39.8955                0.0013898780             0.0001934664
   385       39.9389                0.0016428099             0.0002286736
   386       40.0576                0.0014175788             0.0001973218
   387       40.0817                0.0013642699             0.0001899014
   388       40.1610                0.0014870148             0.0002069868
   389       40.1927                0.0017748723             0.0002470553
   390       40.2620                0.0014054200             0.0001956288
   391       40.3201                0.0016453392             0.0002290244
   392       40.3792                0.0014976419             0.0002084654
   393       40.4676                0.0014737702             0.0002051423
   394       40.4716                0.0017412425             0.0002423732
   395       40.6225                0.0018051106             0.0002512629
   396       40.6823                0.0014415881             0.0002006621
   397       40.7991                0.0017865625             0.0002486805
   398       40.8397                0.0015328878             0.0002133701
   399       40.8741                0.0014947124             0.0002080562
   400       41.0891                0.0012567921             0.0001749384
   401       41.1617                0.0015861328             0.0002207805
   402       41.2118                0.0014067083             0.0001958055
   403       41.2393                0.0015173392             0.0002112046
   404       41.2962                0.0014996109             0.0002087368
   405       41.3202                0.0018439084             0.0002566608
   406       41.3948                0.0015247909             0.0002122414
   407       41.4769                0.0013620683             0.0001895912
   408       41.5587                0.0016421597             0.0002285779
   409       41.6457                0.0013982271             0.0001946238
   410       41.7818                0.0016214779             0.0002256984
   411       41.7951                0.0014654256             0.0002039769
   412       41.8410                0.0017463327             0.0002430771
   413       41.9348                0.0014613180             0.0002034048
   414       41.9669                0.0015993890             0.0002226231
   415       42.0221                0.0014194178             0.0001975723
   416       42.0820                0.0013052252             0.0001816774
   417       42.2245                0.0014135292             0.0001967521
   418       42.2554                0.0014452625             0.0002011690
   419       42.3472                0.0012935954             0.0001800579
   420       42.4055                0.0016290443             0.0002267495
   421       42.4368                0.0013585301             0.0001890961
   422       42.5196                0.0014296773             0.0001989989
   423       42.6156                0.0015641409             0.0002177148
   424       42.7140                0.0014470921             0.0002014223
   425       42.7546                0.0014726890             0.0002049851
   426       42.8507                0.0016510985             0.0002298177
   427       42.9001                0.0017732323             0.0002468175
   428       42.9508                0.0017343286             0.0002414023
   429       42.9546                0.0011937640             0.0001661607
   430       43.0544                0.0012818834             0.0001784259
   431       43.0930                0.0013987698             0.0001946952
   432       43.1197                0.0012900484             0.0001795622
   433       43.1964                0.0014583343             0.0002029857
   434       43.3316                0.0014011025             0.0001950192
   435       43.3853                0.0013979659             0.0001945825
   436       43.4665                0.0014438629             0.0002009706
   437       43.5142                0.0012369746             0.0001721738
   438       43.6695                0.0016664227             0.0002319479
   439       43.7761                0.0014896106             0.0002073372
   440       43.8322                0.0013699595             0.0001906830
   441       43.9238                0.0014861315             0.0002068525
   442       43.9743                0.0015039631             0.0002093343
   443       44.0367                0.0017151592             0.0002387302
   444       44.1035                0.0013285397             0.0001849171
   445       44.2488                0.0014033576             0.0001953304
   446       44.2737                0.0014419160             0.0002006972
   447       44.3681                0.0013460467             0.0001873531
   448       44.4200                0.0012728347             0.0001771627
   449       44.4857                0.0013750828             0.0001913942
   450       44.5966                0.0017256198             0.0002401841
   451       44.7314                0.0013908749             0.0001935915
   452       44.7645                0.0014069772             0.0001958326
   453       44.8508                0.0012899191             0.0001795395
   454       44.8909                0.0015369942             0.0002139289
   455       44.9423                0.0013441910             0.0001870931
   456       45.0018                0.0014807157             0.0002060953
   457       45.0420                0.0012898060             0.0001795232
   458       45.2462                0.0014916441             0.0002076156
   459       45.3352                0.0017144422             0.0002386256
   460       45.3652                0.0014523826             0.0002021506
   461       45.4458                0.0012913458             0.0001797364
   462       45.4823                0.0014649289             0.0002038965
   463       45.5126                0.0016170312             0.0002250668
   464       45.6411                0.0012757253             0.0001775617
   465       45.6551                0.0012593217             0.0001752785
   466       45.7436                0.0013316256             0.0001853419
   467       45.8951                0.0012718639             0.0001770235
   468       45.9258                0.0013164607             0.0001832306
   469       45.9862                0.0013196813             0.0001836787
   470       46.0811                0.0013212833             0.0001839014
   471       46.1711                0.0015597189             0.0002170875
   472       46.2261                0.0012721389             0.0001770609
   473       46.2774                0.0013015379             0.0001811526
   474       46.3631                0.0014505910             0.0002018980
   475       46.4465                0.0011566239             0.0001609825
   476       46.5795                0.0011055074             0.0001538676
   477       46.6214                0.0012512641             0.0001741543
   478       46.6608                0.0013772653             0.0001916914
   479       46.7184                0.0012165214             0.0001693185
   480       46.7704                0.0013379013             0.0001862123
   481       46.9390                0.0012872521             0.0001791623
   482       46.9478                0.0015345750             0.0002135852
   483       47.0096                0.0012793482             0.0001780620
   484       47.0996                0.0013255973             0.0001844988
   485       47.1867                0.0014502594             0.0002018492
   486       47.3166                0.0012308725             0.0001713142
   487       47.3265                0.0012374095             0.0001722240
   488       47.3983                0.0015250104             0.0002122524
   489       47.4807                0.0014579250             0.0002029151
   490       47.5640                0.0014353880             0.0001997781
   491       47.7314                0.0013045552             0.0001815683
   492       47.7486                0.0015556208             0.0002165115
   493       47.8165                0.0013129269             0.0001827332
   494       47.8614                0.0013112718             0.0001825027
   495       47.9922                0.0014682378             0.0002043488
   496       48.0280                0.0012074159             0.0001680476
   497       48.0956                0.0012008721             0.0001671366
   498       48.1597                0.0011379302             0.0001583762
   499       48.3603                0.0014318510             0.0001992832
   500       48.3658                0.0013600856             0.0001892950
   501       48.4517                0.0012591295             0.0001752438
   502       48.4857                0.0012450818             0.0001732886
   503       48.5297                0.0013678500             0.0001903751
   504       48.7078                0.0012479638             0.0001736890
   505       48.8396                0.0013307023             0.0001852040
   506       48.9191                0.0012300492             0.0001711951
   507       48.9746                0.0009854962             0.0001371587
   508       49.0108                0.0012930399             0.0001799617
   509       49.1004                0.0014584779             0.0002029866
   510       49.1807                0.0013100798             0.0001823328
   511       49.1927                0.0010666158             0.0001484482
   512       49.3466                0.0014072024             0.0001958494
   513       49.3715                0.0013381137             0.0001862338
   514       49.4776                0.0011297334             0.0001572319
   515       49.5503                0.0014097368             0.0001962015
   516       49.6663                0.0012260832             0.0001706410
   517       49.6948                0.0012448561             0.0001732536
   518       49.7138                0.0014822163             0.0002062883
   519       49.8267                0.0012559254             0.0001747938
   520       49.9241                0.0012055242             0.0001677789
   521       50.0115                0.0012896873             0.0001794920
   522       50.0630                0.0010362749             0.0001442233
   523       50.1321                0.0013632879             0.0001897350
   524       50.2603                0.0012008997             0.0001671343
   525       50.2803                0.0013752241             0.0001913957
   526       50.3742                0.0013979115             0.0001945529
   527       50.4207                0.0012777288             0.0001778265
   528       50.5272                0.0014549751             0.0002024941
   529       50.5623                0.0011631475             0.0001618793
   530       50.7255                0.0012328576             0.0001715806
   531       50.8132                0.0012862016             0.0001790044
   532       50.8736                0.0010011764             0.0001393365
   533       50.9851                0.0012607979             0.0001754684
   534       50.9964                0.0011256579             0.0001566606
   535       51.0609                0.0014164776             0.0001971345
   536       51.1500                0.0013703185             0.0001907101
   537       51.1976                0.0014314547             0.0001992184
   538       51.3551                0.0013905648             0.0001935271
   539       51.4649                0.0010463033             0.0001456154
   540       51.4911                0.0012904466             0.0001795931
   541       51.5276                0.0012279155             0.0001708904
   542       51.6389                0.0013652632             0.0001900049
   543       51.7280                0.0010349935             0.0001440407
   544       51.8972                0.0011548529             0.0001607212
   545       51.9572                0.0013764532             0.0001915611
   546       51.9962                0.0012671047             0.0001763430
   547       52.0584                0.0015425307             0.0002146737
   548       52.1606                0.0011909281             0.0001657410
   549       52.2727                0.0010210008             0.0001420920
   550       52.3260                0.0011773075             0.0001638449
   551       52.4550                0.0013522648             0.0001881931
   552       52.4890                0.0012231758             0.0001702279
   553       52.5629                0.0012952663             0.0001802604
   554       52.6552                0.0014596296             0.0002031342
   555       52.6912                0.0012925502             0.0001798819
   556       52.7964                0.0011716025             0.0001630496
   557       52.8503                0.0010899528             0.0001516864
   558       52.9548                0.0015249659             0.0002122258
   559       53.0031                0.0013712867             0.0001908385
   560       53.0268                0.0013911896             0.0001936082
   561       53.1603                0.0012885610             0.0001793252
   562       53.2720                0.0014328326             0.0001994027
   563       53.3444                0.0012612407             0.0001755226
   564       53.4662                0.0010747318             0.0001495664
   565       53.5118                0.0013856794             0.0001928397
   566       53.6110                0.0012789896             0.0001779917
   567       53.6634                0.0009200900             0.0001280450
   568       53.8292                0.0011600287             0.0001614358
   569       53.9819                0.0013618608             0.0001895233
   570       53.9885                0.0012014025             0.0001671931
   571       54.0359                0.0012630857             0.0001757771
   572       54.1658                0.0013213031             0.0001838784
[...]
   602       56.6033                0.0010990812             0.0001529459
   603       56.7367                0.0010218956             0.0001422046
   604       56.8419                0.0011534535             0.0001605115
   605       56.9169                0.0009121217             0.0001269282
   606       57.1073                0.0011980972             0.0001667231
   607       57.2286                0.0010515360             0.0001463278
   608       57.2947                0.0008761674             0.0001219240
   609       57.4178                0.0011406252             0.0001587246
   610       57.5105                0.0011129070             0.0001548671
   611       57.6561                0.0009914722             0.0001379684
   612       57.7097                0.0009938027             0.0001382926
   613       57.7734                0.0010955846             0.0001524558
   614       57.8592                0.0008406814             0.0001169846
   615       57.9530                0.0010951312             0.0001523922
   616       58.0132                0.0011050088             0.0001537665
   617       58.0405                0.0009822598             0.0001366854
   618       58.0719                0.0012607628             0.0001754401
   619       58.1805                0.0012760372             0.0001775652
   620       58.2638                0.0009022327             0.0001255487
   621       58.3820                0.0011656831             0.0001622084
   622       58.4887                0.0009008974             0.0001253624
   623       58.6737                0.0009034492             0.0001257170
   624       58.7041                0.0011178689             0.0001555539
   625       58.8170                0.0007202187             0.0001002198
   626       58.9637                0.0011672270             0.0001624213
   627       59.0654                0.0011153384             0.0001552006
   628       59.0707                0.0009470968             0.0001317896
   629       59.1556                0.0008002263             0.0001113522
   630       59.1932                0.0009772113             0.0001359797
   631       59.3764                0.0010651850             0.0001482208
   632       59.4833                0.0008589236             0.0001195192
   633       59.5558                0.0011176808             0.0001555250
   634       59.5933                0.0009958906             0.0001385778
   635       59.6562                0.0009810881             0.0001365179
   636       59.7231                0.0009821545             0.0001366661
   637       59.9682                0.0009430038             0.0001312176
   638       59.9777                0.0011055011             0.0001538289
   639       60.0591                0.0009358570             0.0001302229
   640       60.1227                0.0009493707             0.0001321031
   641       60.2230                0.0008548532             0.0001189510
   642       60.3120                0.0009443148             0.0001313991
   643       60.4487                0.0008590927             0.0001195403
   644       60.5023                0.0010099678             0.0001405340
   645       60.5275                0.0008265478             0.0001150116
   646       60.6970                0.0008834816             0.0001229333
   647       60.7403                0.0008020562             0.0001116032
   648       60.7945                0.0009008777             0.0001253537
   649       60.8984                0.0009886640             0.0001375685
   650       61.0254                0.0010156371             0.0001413213
   651       61.1344                0.0008664523             0.0001205627
   652       61.2125                0.0008475392             0.0001179308
   653       61.2639                0.0010100699             0.0001405460
   654       61.2900                0.0008638925             0.0001202061
   655       61.4149                0.0008942210             0.0001244258
   656       61.4826                0.0008758947             0.0001218756
   657       61.5623                0.0007768693             0.0001080966
   658       61.6866                0.0006940924             0.0000965785
   659       61.7476                0.0007449051             0.0001036486
   660       61.8472                0.0008298984             0.0001154746
   661       62.0353                0.0008257087             0.0001148912
   662       62.0729                0.0008960376             0.0001246768
   663       62.1565                0.0009143379             0.0001272229
   664       62.1990                0.0007132021             0.0000992364
   665       62.3681                0.0006930855             0.0000964370
   666       62.5405                0.0007015468             0.0000976139
   667       62.5759                0.0007186707             0.0000999965
   668       62.6969                0.0010894485             0.0001515864
   669       62.8182                0.0006891124             0.0000958832
   670       62.8695                0.0007022823             0.0000977156
   671       63.0114                0.0007601067             0.0001057609
   672       63.1062                0.0010702237             0.0001489102
   673       63.2087                0.0005903921             0.0000821466
   674       63.2770                0.0006164475             0.0000857718
   675       63.3926                0.0006773260             0.0000942421
   676       63.4673                0.0007273348             0.0001012001
   677       63.5509                0.0005949452             0.0000827794
   678       63.6328                0.0005552593             0.0000772575
   679       63.7789                0.0006575038             0.0000914833
   680       63.8633                0.0005958895             0.0000829103
   681       63.9540                0.0006648798             0.0000925092
   682       64.0107                0.0007778840             0.0001082321
   683       64.1045                0.0006602911             0.0000918704
   684       64.2124                0.0008309064             0.0001156089
   685       64.2665                0.0006334273             0.0000881324
   686       64.3734                0.0006192582             0.0000861607
   687       64.4695                0.0007000663             0.0000974038
   688       64.4859                0.0006717953             0.0000934703
   689       64.6549                0.0006441024             0.0000896169
   690       64.6822                0.0006494472             0.0000903605
   691       64.8490                0.0006299966             0.0000876539
   692       65.0638                0.0004624771             0.0000643460
   693       65.1329                0.0005319394             0.0000740104
   694       65.2662                0.0007488218             0.0001041856
   695       65.4101                0.0005893485             0.0000819973
   696       65.4987                0.0006933992             0.0000964740
   697       65.5898                0.0005185457             0.0000721461
   698       65.7096                0.0006373258             0.0000886719
   699       65.8943                0.0006266622             0.0000871879
   700       66.0443                0.0006252782             0.0000869951
   701       66.1847                0.0005649739             0.0000786047
   702       66.3292                0.0006046991             0.0000841314
   703       66.3921                0.0006464705             0.0000899428
   704       66.4705                0.0006074821             0.0000845183
   705       66.5736                0.0005182465             0.0000721029
   706       66.7284                0.0005723095             0.0000796243
   707       66.8066                0.0007835339             0.0001090113
   708       66.9576                0.0004840136             0.0000673395
   709       67.0153                0.0005146181             0.0000715973
   710       67.2512                0.0005852321             0.0000814212
   711       67.4019                0.0004145314             0.0000576720
   712       67.5116                0.0004295228             0.0000597576
   713       67.7367                0.0006859224             0.0000954288
   714       67.8079                0.0004956019             0.0000689504
   715       67.8937                0.0005351008             0.0000744455
   716       67.9674                0.0004677198             0.0000650711
   717       68.1264                0.0004291834             0.0000597095
   718       68.3097                0.0005989264             0.0000833244
   719       68.4276                0.0004271604             0.0000594276
   720       68.8271                0.0005007905             0.0000696706
   721       68.9283                0.0003603155             0.0000501274
   722       68.9850                0.0004262077             0.0000592943
   723       69.2094                0.0005466227             0.0000760461
   724       69.2802                0.0005822126             0.0000809972
   725       69.4547                0.0004088193             0.0000568746
   726       69.5707                0.0003994569             0.0000555719
   727       69.8195                0.0004890810             0.0000680399
   728       69.8483                0.0004245284             0.0000590595
   729       70.0331                0.0004402097             0.0000612407
   730       70.1110                0.0004572127             0.0000636060
   731       70.2036                0.0002994039             0.0000416520
   732       70.3872                0.0003643383             0.0000506853
   733       70.5281                0.0003876747             0.0000539316
   734       70.6101                0.0002868458             0.0000399046
   735       70.8812                0.0002822904             0.0000392706
   736       71.0965                0.0003242906             0.0000451132
   737       71.3070                0.0003483557             0.0000484607
   738       71.6836                0.0004225866             0.0000587867
   739       71.8018                0.0003642064             0.0000506652
   740       71.9721                0.0002643309             0.0000367712
   741       72.2651                0.0003729795             0.0000518850
   742       72.7941                0.0002509585             0.0000349103
   743       72.8602                0.0003255674             0.0000452889
   744       73.3670                0.0002963265             0.0000412207
   745       73.4067                0.0003308218             0.0000460191
   746       73.6823                0.0003020004             0.0000420096
   747       73.8168                0.0002586695             0.0000359820
   748       74.0319                0.0002452450             0.0000341144
   749       74.1519                0.0002880920             0.0000400744
   750       74.3035                0.0002719506             0.0000378290
   751       74.6422                0.0002804186             0.0000390066
   752       75.2851                0.0001694357             0.0000235683
   753       75.4212                0.0004285874             0.0000596158
   754       76.2103                0.0003658040             0.0000508817
   755       76.3446                0.0002434915             0.0000338684
   756       76.5906                0.0001529417             0.0000212733
   757       76.8502                0.0003117669             0.0000433646
   758       76.9126                0.0002142950             0.0000298069
   759       77.4417                0.0003791961             0.0000527428
   760       77.6652                0.0001802370             0.0000250692
   761       78.0298                0.0002112545             0.0000293831
   762       78.3023                0.0001819175             0.0000253025
   763       78.5114                0.0001434380             0.0000199504
   764       79.4656                0.0000962934             0.0000133928
   765       81.2291                0.0001627183             0.0000226303
   766       82.4449                0.0000527353             0.0000073340
   767       82.8510                0.0001478919             0.0000205674
   768       86.3543                0.0000404627             0.0000056266
--------------------------------------------------------------------------------
  Thermal conductivity =    12.502523 W/(m.K) 
--------------------------------------------------------------------------------

--------------------------------------------------------------------------------
  Phonon properties (per mole of unit cells): Temperature =   1000.000 K
--------------------------------------------------------------------------------
  Zero point energy            =        1.930227 eV
  Entropy                      =        0.261023 eV/K
                               =    25184.763956 J/(mol.K)
  Helmholtz free-energy        =     -214.772534 eV
                               =   -20722.264631 kJmol-1
  Free energy (equipartition)  =     -214.783765 eV
  - T*S       (equipartition)  =     -261.012151 eV
  Uvib        (equipartition)  =       65.922621 eV
  Mean kinetic energy          =       33.101801 eV
  Heat capacity - const volume =        0.065900 eV/K
                               =     6358.358063 J/(mol.K)
--------------------------------------------------------------------------------

  Phonon density of states : 

--------------------------------------------------------------------------------
 Frequency (cm-1) Density of States                                             
--------------------------------------------------------------------------------
    0.00000 |**                                                            0.001
    1.34929 |                                                              0.000
    2.69857 |**                                                            0.001
    4.04786 |**                                                            0.001
    5.39715 |***********                                                   0.005
    6.74644 |***********                                                   0.005
    8.09572 |********************                                          0.009
    9.44501 |**********************                                        0.010
   10.79430 |****************************                                  0.013
   12.14358 |*************************                                     0.012
   13.49287 |**********************************                            0.016
   14.84216 |*******************************                               0.014
   16.19145 |*************************************                         0.017
   17.54073 |****************************************                      0.018
   18.89002 |************************************************              0.022
   20.23931 |******************************************                    0.020
   21.58859 |************************************************              0.022
   22.93788 |***************************************************           0.023
   24.28717 |******************************************************        0.025
   25.63646 |************************************************              0.022
   26.98574 |*********************************************************     0.026
   28.33503 |***************************************************           0.023
   29.68432 |******************************************************        0.025
   31.03361 |******************************************************        0.025
   32.38289 |******************************************************        0.025
   33.73218 |*********************************************************     0.026
   35.08147 |************************************************************  0.027
   36.43075 |******************************************************        0.025
   37.78004 |******************************************************        0.025
   39.12933 |*********************************************************     0.026
   40.47862 |************************************************              0.022
   41.82790 |************************************************************  0.027
   43.17719 |************************************************              0.022
   44.52648 |************************************************              0.022
   45.87576 |******************************************************        0.025
   47.22505 |***************************************************           0.023
   48.57434 |*********************************************                 0.021
   49.92363 |***************************************************           0.023
   51.27291 |*********************************************                 0.021
   52.62220 |******************************************                    0.020
   53.97149 |************************************************              0.022
   55.32077 |************************************************              0.022
   56.67006 |****************************************                      0.018
   58.01935 |****************************************                      0.018
   59.36864 |*********************************************                 0.021
   60.71792 |******************************************                    0.020
   62.06721 |****************************************                      0.018
   63.41650 |******************************************                    0.020
   64.76578 |****************************                                  0.013
   66.11507 |*******************************                               0.014
   67.46436 |**********************                                        0.010
   68.81365 |*******************************                               0.014
   70.16293 |********************                                          0.009
   71.51222 |*****************                                             0.008
   72.86151 |*****************                                             0.008
   74.21079 |***********                                                   0.005
   75.56008 |***********                                                   0.005
   76.90937 |***********                                                   0.005
   78.25866 |********                                                      0.004
   79.60794 |                                                              0.000
   80.95723 |**                                                            0.001
   82.30652 |*****                                                         0.003
   83.65581 |                                                              0.000
   85.00509 |**                                                            0.001
--------------------------------------------------------------------------------



  XYZ File written as gulp.xyz                                


  Time to end of properties =      28.0600 seconds


  Peak dynamic memory used =      10.73 MB 


  Timing analysis for GULP :

--------------------------------------------------------------------------------
  Task / Subroutine                                          Time (Seconds)
--------------------------------------------------------------------------------
  Calculation of real space energy and derivatives                0.0640
  Calculation of phonons                                         26.8840
  Calculation of scattering                                       0.0000
--------------------------------------------------------------------------------
  Total CPU time                                                 28.0600
--------------------------------------------------------------------------------


  Job Finished at 22:46.13 19th June       2013                               

