********************************************************************************
*                       GENERAL UTILITY LATTICE PROGRAM                        *
*                                 Julian Gale                                  *
*                      Nanochemistry Research Institute                        *
*                           Department of Chemistry                            *
*                    Curtin University, Western Australia                      *
********************************************************************************
* Version = 4.0.7 * Last modified =  14th December 2012                        *
********************************************************************************
*  single       - perform a single point run                                   *
*  phonon       - calculate phonons for final geometry                         *
*  thermal      - calculate thermal conductivity for final geometry            *
********************************************************************************

  Job Started  at 19:28.25 27th April      2013                               

  Number of CPUs =     1


  Total number of configurations input =   1

********************************************************************************
*  Input for Configuration =   1                                               *
********************************************************************************

  Formula = Ar256                                                       

  Number of irreducible atoms/shells =     256


  Total number atoms/shells =     256

  Dimensionality = 3               :  Bulk   



  Cartesian lattice vectors (Angstroms) :

       21.483900    0.000000    0.000000
        0.000000   21.483900    0.000000
        0.000000    0.000000   21.483900

  Cell parameters (Angstroms/Degrees):

  a =      21.4839    alpha =  90.0000
  b =      21.4839    beta  =  90.0000
  c =      21.4839    gamma =  90.0000

  Initial cell volume =        9916.065040 Angs**3

  Temperature of configuration =  0.000     K 

  Pressure of configuration =         0.000 GPa 

  Fractional coordinates of asymmetric unit :

--------------------------------------------------------------------------------
   No.  Atomic       x           y          z         Charge      Occupancy
        Label      (Frac)      (Frac)     (Frac)        (e)         (Frac)  
--------------------------------------------------------------------------------
      1 Ar    c    0.498420    0.342613    0.995727     0.00000    1.000000    
      2 Ar    c    0.819032    0.630435    0.617365     0.00000    1.000000    
      3 Ar    c    0.643919    0.102986    0.041318     0.00000    1.000000    
      4 Ar    c    0.978398    0.073293    0.727684     0.00000    1.000000    
      5 Ar    c    0.700227    0.132449    0.200386     0.00000    1.000000    
      6 Ar    c    0.790117    0.538170    0.479568     0.00000    1.000000    
      7 Ar    c    0.676665    0.535955    0.356698     0.00000    1.000000    
      8 Ar    c    0.646405    0.849832    0.942096     0.00000    1.000000    
      9 Ar    c    0.107862    0.300388    0.268103     0.00000    1.000000    
     10 Ar    c    0.187631    0.550328    0.853076     0.00000    1.000000    
     11 Ar    c    0.851493    0.398066    0.170143     0.00000    1.000000    
     12 Ar    c    0.473396    0.074905    0.516666     0.00000    1.000000    
     13 Ar    c    0.968902    0.547936    0.309236     0.00000    1.000000    
     14 Ar    c    0.589004    0.957415    0.478824     0.00000    1.000000    
     15 Ar    c    0.939545    0.860672    0.110589     0.00000    1.000000    
     16 Ar    c    0.479173    0.407309    0.834620     0.00000    1.000000    
     17 Ar    c    0.866654    0.944405    0.364848     0.00000    1.000000    
     18 Ar    c    0.458981    0.088899    0.343327     0.00000    1.000000    
     19 Ar    c    0.807498    0.490377    0.886734     0.00000    1.000000    
     20 Ar    c    0.350193    0.427091    0.967385     0.00000    1.000000    
     21 Ar    c    0.237545    0.126725    0.926666     0.00000    1.000000    
     22 Ar    c    0.280481    0.732800    0.570045     0.00000    1.000000    
     23 Ar    c    0.924432    0.215421    0.872523     0.00000    1.000000    
     24 Ar    c    0.568970    0.077532    0.813684     0.00000    1.000000    
     25 Ar    c    0.686714    0.366573    0.264418     0.00000    1.000000    
     26 Ar    c    0.722890    0.334953    0.697648     0.00000    1.000000    
     27 Ar    c    0.774687    0.739335    0.937218     0.00000    1.000000    
     28 Ar    c    0.939862    0.031460    0.044624     0.00000    1.000000    
     29 Ar    c    0.601474    0.564474    0.060838     0.00000    1.000000    
     30 Ar    c    0.242228    0.320063    0.385470     0.00000    1.000000    
     31 Ar    c    0.126239    0.149847    0.333813     0.00000    1.000000    
     32 Ar    c    0.395487    0.628270    0.651088     0.00000    1.000000    
     33 Ar    c    0.576567    0.652987    0.209138     0.00000    1.000000    
     34 Ar    c    0.942571    0.029297    0.552176     0.00000    1.000000    
     35 Ar    c    0.812846    0.647862    0.792319     0.00000    1.000000    
     36 Ar    c    0.193091    0.817687    0.014319     0.00000    1.000000    
     37 Ar    c    0.354512    0.331788    0.104515     0.00000    1.000000    
     38 Ar    c    0.105055    0.989048    0.297683     0.00000    1.000000    
     39 Ar    c    0.562989    0.490474    0.477385     0.00000    1.000000    
     40 Ar    c    0.390280    0.687110    0.815062     0.00000    1.000000    
     41 Ar    c    0.682106    0.767631    0.636751     0.00000    1.000000    
     42 Ar    c    0.965388    0.377129    0.305644     0.00000    1.000000    
     43 Ar    c    0.258182    0.899585    0.510904     0.00000    1.000000    
     44 Ar    c    0.534344    0.535717    0.635755     0.00000    1.000000    
     45 Ar    c    0.961781    0.933992    0.831376     0.00000    1.000000    
     46 Ar    c    0.252232    0.182899    0.633316     0.00000    1.000000    
     47 Ar    c    0.446795    0.111637    0.051183     0.00000    1.000000    
     48 Ar    c    0.428311    0.460261    0.368806     0.00000    1.000000    
     49 Ar    c    0.418244    0.562053    0.233605     0.00000    1.000000    
     50 Ar    c    0.840159    0.890188    0.527428     0.00000    1.000000    
     51 Ar    c    0.654727    0.624598    0.531700     0.00000    1.000000    
     52 Ar    c    0.505681    0.805547    0.178151     0.00000    1.000000    
     53 Ar    c    0.025033    0.210325    0.470012     0.00000    1.000000    
     54 Ar    c    0.122766    0.072180    0.037809     0.00000    1.000000    
     55 Ar    c    0.267947    0.680207    0.114213     0.00000    1.000000    
     56 Ar    c    0.619455    0.936208    0.106645     0.00000    1.000000    
     57 Ar    c    0.363899    0.220406    0.505872     0.00000    1.000000    
     58 Ar    c    0.928961    0.627256    0.470231     0.00000    1.000000    
     59 Ar    c    0.117632    0.965248    0.764228     0.00000    1.000000    
     60 Ar    c    0.657232    0.747676    0.806627     0.00000    1.000000    
     61 Ar    c    0.450861    0.956367    0.110502     0.00000    1.000000    
     62 Ar    c    0.202760    0.679783    0.423071     0.00000    1.000000    
     63 Ar    c    0.926173    0.191413    0.610876     0.00000    1.000000    
     64 Ar    c    0.523075    0.608930    0.361841     0.00000    1.000000    
     65 Ar    c    0.820093    0.633619    0.335602     0.00000    1.000000    
     66 Ar    c    0.086279    0.367382    0.429321     0.00000    1.000000    
     67 Ar    c    0.910966    0.478084    0.028333     0.00000    1.000000    
     68 Ar    c    0.599812    0.787636    0.492215     0.00000    1.000000    
     69 Ar    c    0.612854    0.391340    0.113324     0.00000    1.000000    
     70 Ar    c    0.774073    0.734015    0.493369     0.00000    1.000000    
     71 Ar    c    0.877634    0.309980    0.016574     0.00000    1.000000    
     72 Ar    c    0.025771    0.237403    0.736519     0.00000    1.000000    
     73 Ar    c    0.869535    0.154522    0.157049     0.00000    1.000000    
     74 Ar    c    0.311009    0.598802    0.968618     0.00000    1.000000    
     75 Ar    c    0.758833    0.841868    0.084146     0.00000    1.000000    
     76 Ar    c    0.629090    0.079294    0.355843     0.00000    1.000000    
     77 Ar    c    0.307970    0.511523    0.116477     0.00000    1.000000    
     78 Ar    c    0.426141    0.806483    0.521460     0.00000    1.000000    
     79 Ar    c    0.822909    0.461528    0.322751     0.00000    1.000000    
     80 Ar    c    0.355969    0.046062    0.213793     0.00000    1.000000    
     81 Ar    c    0.136875    0.465390    0.288123     0.00000    1.000000    
     82 Ar    c    0.492722    0.655966    0.518756     0.00000    1.000000    
     83 Ar    c    0.225439    0.021572    0.632511     0.00000    1.000000    
     84 Ar    c    0.195512    0.186523    0.477972     0.00000    1.000000    
     85 Ar    c    0.420380    0.196510    0.204060     0.00000    1.000000    
     86 Ar    c    0.303982    0.854323    0.824776     0.00000    1.000000    
     87 Ar    c    0.863046    0.897560    0.963382     0.00000    1.000000    
     88 Ar    c    0.044296    0.729774    0.406486     0.00000    1.000000    
     89 Ar    c    0.540484    0.364041    0.680384     0.00000    1.000000    
     90 Ar    c    0.037344    0.073664    0.891007     0.00000    1.000000    
     91 Ar    c    0.564395    0.037349    0.652624     0.00000    1.000000    
     92 Ar    c    0.985664    0.059130    0.388745     0.00000    1.000000    
     93 Ar    c    0.541764    0.989588    0.956735     0.00000    1.000000    
     94 Ar    c    0.723002    0.389457    0.436365     0.00000    1.000000    
     95 Ar    c    0.919670    0.771936    0.840872     0.00000    1.000000    
     96 Ar    c    0.828653    0.402783    0.572801     0.00000    1.000000    
     97 Ar    c    0.753611    0.423768    0.033878     0.00000    1.000000    
     98 Ar    c    0.124281    0.798398    0.543030     0.00000    1.000000    
     99 Ar    c    0.674133    0.597042    0.886436     0.00000    1.000000    
    100 Ar    c    0.664777    0.704407    0.356998     0.00000    1.000000    
    101 Ar    c    0.150524    0.557985    0.142630     0.00000    1.000000    
    102 Ar    c    0.269624    0.980078    0.352520     0.00000    1.000000    
    103 Ar    c    0.224837    0.306071    0.985505     0.00000    1.000000    
    104 Ar    c    0.907563    0.625198    0.935556     0.00000    1.000000    
    105 Ar    c    0.375720    0.243717    0.941905     0.00000    1.000000    
    106 Ar    c    0.950749    0.517122    0.619250     0.00000    1.000000    
    107 Ar    c    0.237118    0.569254    0.562891     0.00000    1.000000    
    108 Ar    c    0.079271    0.948869    0.601190     0.00000    1.000000    
    109 Ar    c    0.616289    0.303302    0.826805     0.00000    1.000000    
    110 Ar    c    0.966133    0.205197    0.311294     0.00000    1.000000    
    111 Ar    c    0.198234    0.959630    0.917818     0.00000    1.000000    
    112 Ar    c    0.915113    0.993400    0.213000     0.00000    1.000000    
    113 Ar    c    0.747597    0.681869    0.189324     0.00000    1.000000    
    114 Ar    c    0.672122    0.610876    0.703918     0.00000    1.000000    
    115 Ar    c    0.007133    0.898477    0.452270     0.00000    1.000000    
    116 Ar    c    0.803066    0.491438    0.716229     0.00000    1.000000    
    117 Ar    c    0.977527    0.286210    0.159429     0.00000    1.000000    
    118 Ar    c    0.380658    0.933280    0.948631     0.00000    1.000000    
    119 Ar    c    0.714805    0.513990    0.183120     0.00000    1.000000    
    120 Ar    c    0.134221    0.228492    0.109538     0.00000    1.000000    
    121 Ar    c    0.091989    0.551278    0.424606     0.00000    1.000000    
    122 Ar    c    0.508767    0.210246    0.610764     0.00000    1.000000    
    123 Ar    c    0.224141    0.453362    0.703820     0.00000    1.000000    
    124 Ar    c    0.539674    0.690084    0.929594     0.00000    1.000000    
    125 Ar    c    0.633223    0.731720    0.067855     0.00000    1.000000    
    126 Ar    c    0.726958    0.035330    0.757041     0.00000    1.000000    
    127 Ar    c    0.124176    0.732069    0.704737     0.00000    1.000000    
    128 Ar    c    0.953123    0.768231    0.554708     0.00000    1.000000    
    129 Ar    c    0.485457    0.823324    0.843944     0.00000    1.000000    
    130 Ar    c    0.670288    0.283029    0.984398     0.00000    1.000000    
    131 Ar    c    0.393952    0.517425    0.521809     0.00000    1.000000    
    132 Ar    c    0.554252    0.934607    0.300959     0.00000    1.000000    
    133 Ar    c    0.251409    0.629076    0.721196     0.00000    1.000000    
    134 Ar    c    0.229965    0.917138    0.201668     0.00000    1.000000    
    135 Ar    c    0.945448    0.462177    0.455419     0.00000    1.000000    
    136 Ar    c    0.258325    0.591108    0.272235     0.00000    1.000000    
    137 Ar    c    0.993260    0.186760    0.024047     0.00000    1.000000    
    138 Ar    c    0.541229    0.188612    0.935636     0.00000    1.000000    
    139 Ar    c    0.073281    0.640168    0.564334     0.00000    1.000000    
    140 Ar    c    0.660141    0.817673    0.230234     0.00000    1.000000    
    141 Ar    c    0.563762    0.360860    0.375483     0.00000    1.000000    
    142 Ar    c    0.705514    0.162942    0.868599     0.00000    1.000000    
    143 Ar    c    0.351982    0.525114    0.821978     0.00000    1.000000    
    144 Ar    c    0.889252    0.781273    0.387004     0.00000    1.000000    
    145 Ar    c    0.496060    0.780147    0.356777     0.00000    1.000000    
    146 Ar    c    0.043405    0.519957    0.939848     0.00000    1.000000    
    147 Ar    c    0.614106    0.913321    0.779658     0.00000    1.000000    
    148 Ar    c    0.077599    0.946793    0.140291     0.00000    1.000000    
    149 Ar    c    0.780403    0.010631    0.097161     0.00000    1.000000    
    150 Ar    c    0.618123    0.444246    0.938391     0.00000    1.000000    
    151 Ar    c    0.578242    0.223413    0.277822     0.00000    1.000000    
    152 Ar    c    0.421995    0.941682    0.424464     0.00000    1.000000    
    153 Ar    c    0.136881    0.297525    0.586393     0.00000    1.000000    
    154 Ar    c    0.094979    0.563571    0.711496     0.00000    1.000000    
    155 Ar    c    0.943739    0.705370    0.233747     0.00000    1.000000    
    156 Ar    c    0.107668    0.463918    0.569082     0.00000    1.000000    
    157 Ar    c    0.257233    0.491121    0.411756     0.00000    1.000000    
    158 Ar    c    0.262168    0.253925    0.225946     0.00000    1.000000    
    159 Ar    c    0.134624    0.393667    0.865685     0.00000    1.000000    
    160 Ar    c    0.355305    0.760258    0.961925     0.00000    1.000000    
    161 Ar    c    0.342565    0.830492    0.111607     0.00000    1.000000    
    162 Ar    c    0.446699    0.963317    0.764479     0.00000    1.000000    
    163 Ar    c    0.891374    0.342993    0.723207     0.00000    1.000000    
    164 Ar    c    0.471991    0.539488    0.949958     0.00000    1.000000    
    165 Ar    c    0.185762    0.386243    0.142065     0.00000    1.000000    
    166 Ar    c    0.223191    0.714284    0.863568     0.00000    1.000000    
    167 Ar    c    0.017315    0.455513    0.161991     0.00000    1.000000    
    168 Ar    c    0.098596    0.232402    0.896676     0.00000    1.000000    
    169 Ar    c    0.538934    0.871955    0.631450     0.00000    1.000000    
    170 Ar    c    0.766444    0.592029    0.032696     0.00000    1.000000    
    171 Ar    c    0.650994    0.182092    0.698756     0.00000    1.000000    
    172 Ar    c    0.280987    0.002434    0.063624     0.00000    1.000000    
    173 Ar    c    0.097884    0.824459    0.850558     0.00000    1.000000    
    174 Ar    c    0.818762    0.187567    0.742295     0.00000    1.000000    
    175 Ar    c    0.717351    0.000000    0.929813     0.00000    1.000000    
    176 Ar    c    0.156411    0.853895    0.382336     0.00000    1.000000    
    177 Ar    c    0.411360    0.087033    0.882777     0.00000    1.000000    
    178 Ar    c    0.679560    0.467224    0.598453     0.00000    1.000000    
    179 Ar    c    0.707842    0.223793    0.400694     0.00000    1.000000    
    180 Ar    c    0.475994    0.224109    0.781604     0.00000    1.000000    
    181 Ar    c    0.050359    0.403463    0.719837     0.00000    1.000000    
    182 Ar    c    0.310455    0.191381    0.792305     0.00000    1.000000    
    183 Ar    c    0.877527    0.309268    0.436112     0.00000    1.000000    
    184 Ar    c    0.819888    0.271017    0.280243     0.00000    1.000000    
    185 Ar    c    0.723793    0.971942    0.255017     0.00000    1.000000    
    186 Ar    c    0.532869    0.712780    0.692393     0.00000    1.000000    
    187 Ar    c    0.088560    0.125291    0.604751     0.00000    1.000000    
    188 Ar    c    0.859830    0.060358    0.863172     0.00000    1.000000    
    189 Ar    c    0.404442    0.286843    0.352995     0.00000    1.000000    
    190 Ar    c    0.397275    0.103689    0.676251     0.00000    1.000000    
    191 Ar    c    0.700436    0.936189    0.615228     0.00000    1.000000    
    192 Ar    c    0.829319    0.833657    0.238558     0.00000    1.000000    
    193 Ar    c    0.445560    0.660820    0.083554     0.00000    1.000000    
    194 Ar    c    0.949311    0.529420    0.794628     0.00000    1.000000    
    195 Ar    c    0.300374    0.148260    0.347819     0.00000    1.000000    
    196 Ar    c    0.871909    0.564758    0.173118     0.00000    1.000000    
    197 Ar    c    0.786654    0.321834    0.862967     0.00000    1.000000    
    198 Ar    c    0.543286    0.071721    0.192996     0.00000    1.000000    
    199 Ar    c    0.388745    0.802731    0.688990     0.00000    1.000000    
    200 Ar    c    0.498466    0.828388    0.015367     0.00000    1.000000    
    201 Ar    c    0.749319    0.018488    0.457619     0.00000    1.000000    
    202 Ar    c    0.045534    0.920810    0.978575     0.00000    1.000000    
    203 Ar    c    0.457318    0.359895    0.521525     0.00000    1.000000    
    204 Ar    c    0.145749    0.648905    0.997230     0.00000    1.000000    
    205 Ar    c    0.777997    0.876289    0.818180     0.00000    1.000000    
    206 Ar    c    0.644618    0.462857    0.774659     0.00000    1.000000    
    207 Ar    c    0.198125    0.089048    0.194150     0.00000    1.000000    
    208 Ar    c    0.309505    0.061619    0.494938     0.00000    1.000000    
    209 Ar    c    0.820503    0.100244    0.311468     0.00000    1.000000    
    210 Ar    c    0.563510    0.486485    0.248576     0.00000    1.000000    
    211 Ar    c    0.191318    0.475249    0.001778     0.00000    1.000000    
    212 Ar    c    0.184197    0.291606    0.744795     0.00000    1.000000    
    213 Ar    c    0.870340    0.714772    0.078013     0.00000    1.000000    
    214 Ar    c    0.521302    0.578084    0.796164     0.00000    1.000000    
    215 Ar    c    0.560201    0.230756    0.110299     0.00000    1.000000    
    216 Ar    c    0.393050    0.455783    0.677931     0.00000    1.000000    
    217 Ar    c    0.371353    0.293236    0.666173     0.00000    1.000000    
    218 Ar    c    0.478637    0.351111    0.218254     0.00000    1.000000    
    219 Ar    c    0.310884    0.416521    0.257248     0.00000    1.000000    
    220 Ar    c    0.838498    0.787571    0.683833     0.00000    1.000000    
    221 Ar    c    0.745679    0.274182    0.128309     0.00000    1.000000    
    222 Ar    c    0.860323    0.146720    0.462303     0.00000    1.000000    
    223 Ar    c    0.378680    0.720377    0.245680     0.00000    1.000000    
    224 Ar    c    0.962605    0.672043    0.700054     0.00000    1.000000    
    225 Ar    c    0.809443    0.153920    0.000000     0.00000    1.000000    
    226 Ar    c    0.006346    0.854831    0.279120     0.00000    1.000000    
    227 Ar    c    0.287238    0.019885    0.787255     0.00000    1.000000    
    228 Ar    c    0.055051    0.358883    0.020211     0.00000    1.000000    
    229 Ar    c    0.390343    0.891482    0.264987     0.00000    1.000000    
    230 Ar    c    0.005102    0.614833    0.085439     0.00000    1.000000    
    231 Ar    c    0.789629    0.083612    0.609042     0.00000    1.000000    
    232 Ar    c    0.957857    0.381639    0.878476     0.00000    1.000000    
    233 Ar    c    0.320488    0.800772    0.388935     0.00000    1.000000    
    234 Ar    c    0.098104    0.644757    0.273850     0.00000    1.000000    
    235 Ar    c    0.315962    0.358676    0.819604     0.00000    1.000000    
    236 Ar    c    0.140119    0.024057    0.463156     0.00000    1.000000    
    237 Ar    c    0.053887    0.661281    0.847155     0.00000    1.000000    
    238 Ar    c    0.216703    0.760272    0.256964     0.00000    1.000000    
    239 Ar    c    0.387811    0.951955    0.604387     0.00000    1.000000    
    240 Ar    c    0.363614    0.635215    0.402324     0.00000    1.000000    
    241 Ar    c    0.000000    0.841998    0.699831     0.00000    1.000000    
    242 Ar    c    0.981549    0.345018    0.573211     0.00000    1.000000    
    243 Ar    c    0.152349    0.126757    0.768073     0.00000    1.000000    
    244 Ar    c    0.864689    0.954012    0.689405     0.00000    1.000000    
    245 Ar    c    0.280734    0.384520    0.548397     0.00000    1.000000    
    246 Ar    c    0.643175    0.128182    0.531477     0.00000    1.000000    
    247 Ar    c    0.225723    0.861082    0.675636     0.00000    1.000000    
    248 Ar    c    0.293504    0.172883    0.080046     0.00000    1.000000    
    249 Ar    c    0.010391    0.756934    0.986376     0.00000    1.000000    
    250 Ar    c    0.621335    0.313572    0.541494     0.00000    1.000000    
    251 Ar    c    0.529341    0.211496    0.439593     0.00000    1.000000    
    252 Ar    c    0.466214    0.471418    0.101119     0.00000    1.000000    
    253 Ar    c    0.086977    0.762804    0.142293     0.00000    1.000000    
    254 Ar    c    0.717021    0.864042    0.390249     0.00000    1.000000    
    255 Ar    c    0.032033    0.112601    0.184133     0.00000    1.000000    
    256 Ar    c    0.771019    0.244999    0.564665     0.00000    1.000000    
--------------------------------------------------------------------------------


  Brillouin zone sampling points :

--------------------------------------------------------------------------------
  Point number          x          y          z            Weight
--------------------------------------------------------------------------------
        1           0.000000   0.000000   0.000000         1.0000
--------------------------------------------------------------------------------


********************************************************************************
*  General input information                                                   *
********************************************************************************

  Species output for all configurations : 

--------------------------------------------------------------------------------
  Species    Type    Atomic    Atomic    Charge       Radii (Angs)     Library
                     Number     Mass       (e)     Cova   Ionic  VDW   Symbol
--------------------------------------------------------------------------------
    Ar       Core       18      39.95   0.000000   0.000  0.000  0.000          
--------------------------------------------------------------------------------


  Lattice summation method               =    Ewald          (3-D)
                                         =    Parry          (2-D)
                                         =    Saunders et al (1-D)
  Accuracy factor for lattice sums       =   12.000


  Time limit = Infinity

  Maximum range for interatomic potentials =    100000.000000 Angstroms

  General interatomic potentials :

--------------------------------------------------------------------------------
Atom  Types   Potential         A         B         C         D     Cutoffs(Ang)
  1     2                                                            Min    Max 
--------------------------------------------------------------------------------
Ar   c Ar   c Lennard 12  6 0.995E+05  64.4      0.00      0.00     0.000  8.500
--------------------------------------------------------------------------------

********************************************************************************
*  Output for configuration   1                                                *
********************************************************************************


  Components of energy : 

--------------------------------------------------------------------------------
  Interatomic potentials     =         -19.69423482 eV
  Monopole - monopole (real) =           0.00000000 eV
  Monopole - monopole (recip)=           0.00000000 eV
  Monopole - monopole (total)=           0.00000000 eV
--------------------------------------------------------------------------------
  Total lattice energy       =         -19.69423482 eV
--------------------------------------------------------------------------------
  Total lattice energy       =           -1900.1926 kJ/(mole unit cells)
--------------------------------------------------------------------------------


  Elastic Constant Matrix: (Units=GPa)

-------------------------------------------------------------------------------
  Indices      1         2         3         4         5         6    
-------------------------------------------------------------------------------
       1      3.3862    2.2967    1.9120   -0.1483    0.0528   -0.0623
       2      2.2967    3.7132    1.8664   -0.0649   -0.0715    0.2468
       3      1.9120    1.8664    3.4888    0.2074    0.0732    0.0729
       4     -0.1483   -0.0649    0.2074    0.5493   -0.0062   -0.0765
       5      0.0528   -0.0715    0.0732   -0.0062    0.6989    0.0830
       6     -0.0623    0.2468    0.0729   -0.0765    0.0830    0.6703
-------------------------------------------------------------------------------


  Elastic Compliance Matrix: (Units=1/GPa)

-------------------------------------------------------------------------------
  Indices      1         2         3         4         5         6    
-------------------------------------------------------------------------------
       1    0.628619 -0.300204 -0.201288  0.241064 -0.082083  0.228510
       2   -0.300204  0.530955 -0.116996 -0.004151  0.115988 -0.225497
       3   -0.201288 -0.116996  0.476711 -0.255806 -0.042875 -0.051343
       4    0.241064 -0.004151 -0.255806  2.021062 -0.007421  0.283261
       5   -0.082083  0.115988 -0.042875 -0.007421  1.480589 -0.229905
       6    0.228510 -0.225497 -0.051343  0.283261 -0.229905  1.662596
-------------------------------------------------------------------------------

  Mechanical properties :

-------------------------------------------------------------------------------
  Convention :                    Reuss         Voigt         Hill
-------------------------------------------------------------------------------
  Bulk  Modulus (GPa)     =       2.50432       2.52649       2.51540
  Shear Modulus (GPa)     =       0.61195       0.68457       0.64826
-------------------------------------------------------------------------------
  Velocity S-wave (km/s)  =       0.59775       0.63222       0.61523
  Velocity P-wave (km/s)  =       1.39235       1.41708       1.40477
-------------------------------------------------------------------------------
  Compressibility (1/GPa) =    0.39931061
-------------------------------------------------------------------------------
  Stress axis :                     x             y             z
-------------------------------------------------------------------------------
  Youngs Moduli (GPa)     =       1.59079       1.88340       2.09771
-------------------------------------------------------------------------------
  Poissons Ratio (x)      =                     0.56540       0.42224
  Poissons Ratio (y)      =       0.47756                     0.24542
  Poissons Ratio (z)      =       0.32021       0.22035
-------------------------------------------------------------------------------


  Piezoelectric Strain Matrix: (Units=C/m**2)

-------------------------------------------------------------------------------
  Indices      1         2         3         4         5         6    
-------------------------------------------------------------------------------
       x    -0.00000  -0.00000  -0.00000  -0.00000  -0.00000  -0.00000
       y    -0.00000  -0.00000  -0.00000  -0.00000  -0.00000  -0.00000
       z    -0.00000  -0.00000  -0.00000  -0.00000  -0.00000  -0.00000
-------------------------------------------------------------------------------


  Piezoelectric Stress Matrix: (Units=10**-11 C/N)

-------------------------------------------------------------------------------
  Indices      1         2         3         4         5         6    
-------------------------------------------------------------------------------
       x     0.00000   0.00000   0.00000   0.00000   0.00000   0.00000
       y     0.00000   0.00000   0.00000   0.00000   0.00000   0.00000
       z     0.00000   0.00000   0.00000   0.00000   0.00000   0.00000
-------------------------------------------------------------------------------


  Static dielectric constant tensor : 

-------------------------------------------------------------------------------
              x         y         z
-------------------------------------------------------------------------------
       x     1.00000   0.00000   0.00000
       y     0.00000   1.00000   0.00000
       z     0.00000   0.00000   1.00000
--------------------------------------------------------------------------------

  Static refractive indices : 

-------------------------------------------------------------------------------
    1 =    1.00000      2 =    1.00000      3 =    1.00000
-------------------------------------------------------------------------------


  Phonon Calculation : 

  Number of k points for this configuration =        1

--------------------------------------------------------------------------------
  K point      1 =   0.000000  0.000000  0.000000  Weight =    1.000
--------------------------------------------------------------------------------

 Frequencies (cm-1) : 

   -0.00   -0.00    0.00    3.25    5.19    5.46    5.71    6.02    6.41
    6.80    7.32    7.67    7.98    8.15    8.22    8.60    8.87    9.09
    9.23    9.36    9.45    9.67    9.89   10.01   10.19   10.39   10.47
   10.57   10.89   11.22   11.36   11.38   11.57   11.70   11.80   11.90
   11.97   12.10   12.30   12.50   12.68   12.75   12.89   13.05   13.10
   13.18   13.39   13.61   13.63   13.79   13.84   13.93   14.15   14.22
   14.29   14.40   14.57   14.61   14.79   14.85   14.94   15.06   15.14
   15.34   15.40   15.54   15.61   15.89   15.90   16.10   16.23   16.34
   16.44   16.48   16.57   16.82   17.00   17.04   17.08   17.15   17.28
   17.38   17.41   17.59   17.65   17.71   17.81   17.85   17.97   18.10
   18.21   18.27   18.39   18.42   18.60   18.66   18.74   18.93   19.06
   19.13   19.17   19.28   19.31   19.41   19.49   19.57   19.71   19.73
   19.79   19.94   20.00   20.10   20.20   20.22   20.36   20.52   20.58
   20.62   20.65   20.77   20.85   20.95   21.06   21.13   21.20   21.25
   21.32   21.52   21.58   21.64   21.66   21.80   21.87   21.97   22.08
   22.09   22.16   22.23   22.40   22.48   22.58   22.61   22.67   22.72
   22.86   22.90   23.05   23.10   23.15   23.16   23.28   23.38   23.44
   23.55   23.60   23.64   23.64   23.76   23.88   23.99   24.02   24.09
   24.18   24.29   24.33   24.42   24.46   24.58   24.68   24.72   24.78
   24.90   24.98   25.03   25.04   25.08   25.19   25.31   25.38   25.42
   25.49   25.53   25.63   25.70   25.84   25.97   26.00   26.20   26.21
   26.22   26.29   26.31   26.42   26.46   26.54   26.60   26.64   26.70
   26.87   26.91   26.99   27.04   27.12   27.21   27.23   27.35   27.44
   27.51   27.61   27.66   27.76   27.84   27.89   27.95   28.00   28.08
   28.14   28.19   28.20   28.29   28.38   28.46   28.55   28.59   28.63
   28.80   28.89   28.93   28.94   29.02   29.09   29.20   29.21   29.27
   29.37   29.40   29.57   29.66   29.73   29.77   29.90   29.92   29.97
   30.02   30.19   30.28   30.35   30.43   30.45   30.52   30.55   30.63
   30.72   30.81   30.90   30.90   30.99   31.06   31.09   31.16   31.26
   31.32   31.38   31.45   31.55   31.61   31.68   31.78   31.88   31.89
   31.98   32.00   32.10   32.14   32.21   32.27   32.44   32.48   32.51
   32.60   32.65   32.78   32.86   33.00   33.02   33.05   33.07   33.12
   33.27   33.33   33.41   33.47   33.58   33.62   33.67   33.80   33.83
   33.86   33.95   33.95   34.06   34.08   34.20   34.30   34.35   34.44
   34.50   34.58   34.61   34.74   34.76   34.85   34.89   34.97   35.05
   35.08   35.13   35.20   35.23   35.27   35.37   35.49   35.51   35.55
   35.70   35.74   35.84   35.85   35.90   36.00   36.02   36.15   36.17
   36.27   36.36   36.42   36.47   36.51   36.61   36.64   36.74   36.78
   36.92   36.98   37.00   37.08   37.12   37.17   37.25   37.32   37.44
   37.54   37.62   37.70   37.77   37.86   37.98   38.04   38.10   38.18
   38.22   38.30   38.42   38.44   38.52   38.54   38.61   38.69   38.73
   38.77   38.90   38.91   38.98   39.12   39.13   39.24   39.26   39.31
   39.44   39.51   39.68   39.79   39.87   39.90   39.94   40.06   40.08
   40.16   40.19   40.26   40.32   40.38   40.47   40.47   40.62   40.68
   40.80   40.84   40.87   41.09   41.16   41.21   41.24   41.30   41.32
   41.39   41.48   41.56   41.65   41.78   41.80   41.84   41.93   41.97
   42.02   42.08   42.22   42.26   42.35   42.41   42.44   42.52   42.62
   42.71   42.75   42.85   42.90   42.95   42.95   43.05   43.09   43.12
   43.20   43.33   43.39   43.47   43.51   43.67   43.78   43.83   43.92
   43.97   44.04   44.10   44.25   44.27   44.37   44.42   44.49   44.60
   44.73   44.76   44.85   44.89   44.94   45.00   45.04   45.25   45.34
   45.37   45.45   45.48   45.51   45.64   45.66   45.74   45.90   45.93
   45.99   46.08   46.17   46.23   46.28   46.36   46.45   46.58   46.62
   46.66   46.72   46.77   46.94   46.95   47.01   47.10   47.19   47.32
   47.33   47.40   47.48   47.56   47.73   47.75   47.82   47.86   47.99
   48.03   48.10   48.16   48.36   48.37   48.45   48.49   48.53   48.71
   48.84   48.92   48.97   49.01   49.10   49.18   49.19   49.35   49.37
   49.48   49.55   49.67   49.69   49.71   49.83   49.92   50.01   50.06
   50.13   50.26   50.28   50.37   50.42   50.53   50.56   50.73   50.81
   50.87   50.99   51.00   51.06   51.15   51.20   51.36   51.46   51.49
   51.53   51.64   51.73   51.90   51.96   52.00   52.06   52.16   52.27
   52.33   52.46   52.49   52.56   52.66   52.69   52.80   52.85   52.95
   53.00   53.03   53.16   53.27   53.34   53.47   53.51   53.61   53.66
   53.83   53.98   53.99   54.04   54.17   54.33   54.40   54.45   54.53
   54.61   54.72   54.75   54.77   54.97   55.01   55.15   55.16   55.24
   55.42   55.43   55.59   55.66   55.69   55.73   55.74   55.83   55.95
   56.03   56.19   56.24   56.28   56.39   56.45   56.51   56.60   56.74
   56.84   56.92   57.11   57.23   57.29   57.42   57.51   57.66   57.71
   57.77   57.86   57.95   58.01   58.04   58.07   58.18   58.26   58.38
   58.49   58.67   58.70   58.82   58.96   59.07   59.07   59.16   59.19
   59.38   59.48   59.56   59.59   59.66   59.72   59.97   59.98   60.06
   60.12   60.22   60.31   60.45   60.50   60.53   60.70   60.74   60.79
   60.90   61.03   61.13   61.21   61.26   61.29   61.41   61.48   61.56
   61.69   61.75   61.85   62.04   62.07   62.16   62.20   62.37   62.54
   62.58   62.70   62.82   62.87   63.01   63.11   63.21   63.28   63.39
   63.47   63.55   63.63   63.78   63.86   63.95   64.01   64.10   64.21
   64.27   64.37   64.47   64.49   64.65   64.68   64.85   65.06   65.13
   65.27   65.41   65.50   65.59   65.71   65.89   66.04   66.18   66.33
   66.39   66.47   66.57   66.73   66.81   66.96   67.02   67.25   67.40
   67.51   67.74   67.81   67.89   67.97   68.13   68.31   68.43   68.83
   68.93   68.99   69.21   69.28   69.45   69.57   69.82   69.85   70.03
   70.11   70.20   70.39   70.53   70.61   70.88   71.10   71.31   71.68
   71.80   71.97   72.27   72.79   72.86   73.37   73.41   73.68   73.82
   74.03   74.15   74.30   74.64   75.29   75.42   76.21   76.34   76.59
   76.85   76.91   77.44   77.67   78.03   78.30   78.51   79.47   81.23
   82.44   82.85   86.35



  Thermal conductivity: 

  Lorentzian broadening factor =     0.1089 cm-1

--------------------------------------------------------------------------------
 Mode    : Frequency (cm-1)         Thermal conductivity (cm**2/s)              
--------------------------------------------------------------------------------
     4        3.2488                  0.01012830360052
     5        5.1862                  0.01265323715068
     6        5.4569                  0.01462905483365
     7        5.7083                  0.01128397039544
     8        6.0151                  0.00739560582116
     9        6.4081                  0.00817851584559
    10        6.8003                  0.00823195945096
    11        7.3188                  0.00386671407952
    12        7.6710                  0.00663859147319
    13        7.9783                  0.01263822594001
    14        8.1475                  0.01515242108770
    15        8.2191                  0.01430048874593
    16        8.5986                  0.01083609933039
    17        8.8738                  0.01262551535027
    18        9.0923                  0.02231072488892
    19        9.2290                  0.02173193248736
    20        9.3613                  0.01725738266346
    21        9.4507                  0.01045054990933
    22        9.6690                  0.01568757873617
    23        9.8863                  0.02360733252857
    24       10.0113                  0.02238044638039
    25       10.1881                  0.01288126798185
    26       10.3873                  0.01649023288169
    27       10.4680                  0.02110733598277
    28       10.5745                  0.01464773032785
    29       10.8945                  0.00662881645786
    30       11.2211                  0.01184268318720
    31       11.3569                  0.01869546850600
    32       11.3839                  0.01078305080583
    33       11.5723                  0.01368226507039
    34       11.6977                  0.01853258495797
    35       11.7997                  0.03062273257969
    36       11.8976                  0.02806563727811
    37       11.9702                  0.01219626441073
    38       12.1049                  0.01283547568114
    39       12.2953                  0.00974665314165
    40       12.5022                  0.01322080450193
    41       12.6796                  0.02417676008578
    42       12.7482                  0.02441546162402
    43       12.8859                  0.01272758365722
    44       13.0523                  0.01543798594963
    45       13.0979                  0.01315538300593
    46       13.1829                  0.01484258402748
    47       13.3850                  0.01249991507729
    48       13.6068                  0.03880769410774
    49       13.6327                  0.04927871129948
    50       13.7874                  0.01791940651203
    51       13.8422                  0.01508496927696
    52       13.9318                  0.01356259328037
    53       14.1487                  0.01774121299801
    54       14.2196                  0.02600907273554
    55       14.2912                  0.02159116606471
    56       14.4047                  0.01675121126905
    57       14.5736                  0.01881954466447
    58       14.6063                  0.01920653847174
    59       14.7859                  0.01958017845228
    60       14.8498                  0.02779303992174
    61       14.9445                  0.02542403154836
    62       15.0550                  0.02078935172051
    63       15.1376                  0.01325886148504
    64       15.3363                  0.02121981126621
    65       15.3974                  0.03329595792207
    66       15.5421                  0.02780998877527
    67       15.6118                  0.01112176793905
    68       15.8944                  0.01672716915716
    69       15.8990                  0.01676380771336
    70       16.0994                  0.01232639356441
    71       16.2330                  0.01252936689969
    72       16.3434                  0.01748271943163
    73       16.4385                  0.02682554936998
    74       16.4812                  0.02469633052402
    75       16.5685                  0.02438488504187
    76       16.8152                  0.00920843385157
    77       16.9997                  0.02835889180932
    78       17.0352                  0.02596782344087
    79       17.0825                  0.01877916794405
    80       17.1520                  0.01648618278396
    81       17.2791                  0.01814380379016
    82       17.3799                  0.02324237169472
    83       17.4122                  0.02327205180154
    84       17.5865                  0.01950362826459
    85       17.6470                  0.02544349330107
    86       17.7104                  0.01286763254341
    87       17.8077                  0.04170666533102
    88       17.8513                  0.04868049182421
    89       17.9730                  0.01761202312267
    90       18.1029                  0.01320528023024
    91       18.2112                  0.01084011871870
    92       18.2749                  0.01987824975921
    93       18.3894                  0.02427746381052
    94       18.4176                  0.02543850689108
    95       18.5997                  0.01288837316700
    96       18.6645                  0.01654084746674
    97       18.7388                  0.01293709473855
    98       18.9320                  0.01282485137636
    99       19.0626                  0.01278857033674
   100       19.1274                  0.01443097250115
   101       19.1678                  0.01619375504777
   102       19.2801                  0.02506200586425
   103       19.3069                  0.01893009867765
   104       19.4110                  0.01705417151265
   105       19.4869                  0.01164192388749
   106       19.5671                  0.00982177079224
   107       19.7124                  0.01744712316376
   108       19.7309                  0.01801659222136
   109       19.7918                  0.02756877861035
   110       19.9450                  0.02545602080194
   111       19.9973                  0.02749438774326
   112       20.1034                  0.02782087023290
   113       20.1950                  0.02041080088381
   114       20.2212                  0.02194879682501
   115       20.3564                  0.01808483527800
   116       20.5182                  0.01686053518362
   117       20.5831                  0.01747769924963
   118       20.6240                  0.01757321089471
   119       20.6460                  0.01338540914000
   120       20.7672                  0.02228939244289
   121       20.8527                  0.02092663006273
   122       20.9519                  0.01631855294527
   123       21.0598                  0.02337830590492
   124       21.1288                  0.01342334103281
   125       21.1991                  0.01857120812052
   126       21.2469                  0.03113717933399
   127       21.3232                  0.02728410010551
   128       21.5224                  0.01480204095947
   129       21.5785                  0.01960759675085
   130       21.6364                  0.01725577923244
   131       21.6650                  0.02634866329118
   132       21.8046                  0.02205373618338
   133       21.8738                  0.03396154721067
   134       21.9661                  0.03127842012275
   135       22.0764                  0.02136472262378
   136       22.0864                  0.01739529608682
   137       22.1637                  0.02122168443163
   138       22.2259                  0.02221600024656
   139       22.3991                  0.01455432414687
   140       22.4808                  0.01450467767314
   141       22.5815                  0.01994110671367
   142       22.6103                  0.04516586724938
   143       22.6690                  0.04747411375437
   144       22.7172                  0.02941724811574
   145       22.8609                  0.01703646197159
   146       22.9021                  0.02098007233864
   147       23.0461                  0.01518156022839
   148       23.1040                  0.01725886528059
   149       23.1496                  0.02011153671807
   150       23.1569                  0.02081741530653
   151       23.2848                  0.02479694585564
   152       23.3782                  0.02966998548883
   153       23.4443                  0.02491145195341
   154       23.5456                  0.03508939108824
   155       23.5951                  0.03161926879302
   156       23.6370                  0.02616084034168
   157       23.6399                  0.02114076233503
   158       23.7569                  0.01838685176542
   159       23.8837                  0.01696517897647
   160       23.9876                  0.03082830533934
   161       24.0156                  0.03292078139450
   162       24.0858                  0.01725459123073
   163       24.1833                  0.01332420023756
   164       24.2859                  0.01352499019611
   165       24.3309                  0.02311296079063
   166       24.4181                  0.02431632629171
   167       24.4574                  0.02670745158790
   168       24.5849                  0.01821294712676
   169       24.6815                  0.01488373502543
   170       24.7213                  0.01972995081729
   171       24.7832                  0.01943573931266
   172       24.9036                  0.02032007021989
   173       24.9811                  0.01966542372539
   174       25.0322                  0.01924204110873
   175       25.0444                  0.02015286901518
   176       25.0766                  0.02667744693733
   177       25.1894                  0.02420383046125
   178       25.3102                  0.02310060413692
   179       25.3846                  0.02044484047312
   180       25.4218                  0.02142553335678
   181       25.4905                  0.02442050741207
   182       25.5279                  0.01375956105401
   183       25.6338                  0.01601420015374
   184       25.6996                  0.01465864310520
   185       25.8366                  0.01392063278564
   186       25.9713                  0.01858734314229
   187       26.0011                  0.01996233162375
   188       26.1977                  0.02196920460768
   189       26.2078                  0.02509106364493
   190       26.2240                  0.01332082608625
   191       26.2857                  0.02183881619855
   192       26.3066                  0.02034746809212
   193       26.4219                  0.01747656052774
   194       26.4617                  0.02473506984358
   195       26.5380                  0.03561291658216
   196       26.5985                  0.02085486379971
   197       26.6392                  0.03248976687749
   198       26.7028                  0.01197022823005
   199       26.8655                  0.01230277820783
   200       26.9108                  0.01287604031747
   201       26.9899                  0.01028237079959
   202       27.0398                  0.02110759883692
   203       27.1191                  0.01667768909171
   204       27.2053                  0.02310179442642
   205       27.2303                  0.02240060186288
   206       27.3496                  0.01343793246138
   207       27.4361                  0.02097657828537
   208       27.5076                  0.01627214443351
   209       27.6103                  0.01163122252476
   210       27.6570                  0.01617723736020
   211       27.7578                  0.01804970259839
   212       27.8350                  0.01481175524428
   213       27.8885                  0.02196747831751
   214       27.9485                  0.02754338538505
   215       27.9985                  0.03391644822409
   216       28.0821                  0.02440925360596
   217       28.1414                  0.01760465849642
   218       28.1934                  0.02264440176708
   219       28.2043                  0.02526207216677
   220       28.2862                  0.02801953755963
   221       28.3826                  0.02200343043730
   222       28.4645                  0.01688559627687
   223       28.5526                  0.02205498510749
   224       28.5888                  0.02941565655839
   225       28.6332                  0.02685172639796
   226       28.7980                  0.01199654218432
   227       28.8898                  0.02107699988296
   228       28.9274                  0.01855724258576
   229       28.9403                  0.01564581847902
   230       29.0166                  0.02267408035787
   231       29.0895                  0.01785900729422
   232       29.1962                  0.02430568572721
   233       29.2123                  0.02050977121446
   234       29.2717                  0.01588672890379
   235       29.3733                  0.01466350503750
   236       29.4032                  0.01519214260870
   237       29.5685                  0.01254847591603
   238       29.6582                  0.01194547932015
   239       29.7289                  0.01801433733152
   240       29.7695                  0.01901299891830
   241       29.8955                  0.01773255590221
   242       29.9228                  0.01490420414912
   243       29.9706                  0.01968782431880
   244       30.0227                  0.01443976941832
   245       30.1892                  0.01393712277283
   246       30.2759                  0.02486584220473
   247       30.3495                  0.02753105168731
   248       30.4271                  0.02489675259905
   249       30.4496                  0.02442711596904
   250       30.5198                  0.01900246768690
   251       30.5456                  0.01538168332908
   252       30.6334                  0.01443734816646
   253       30.7227                  0.01965149668387
   254       30.8145                  0.02723561557465
   255       30.8959                  0.05454186654026
   256       30.9017                  0.03157636124761
   257       30.9928                  0.02379587934106
   258       31.0650                  0.01665993445910
   259       31.0914                  0.02111141493002
   260       31.1594                  0.03167642514427
   261       31.2568                  0.02124632677798
   262       31.3163                  0.01784644384156
   263       31.3768                  0.02401386335741
   264       31.4503                  0.02322528298910
   265       31.5510                  0.01292178862134
   266       31.6089                  0.02404032971418
   267       31.6755                  0.02350032993288
   268       31.7802                  0.02832593767990
   269       31.8783                  0.04422157827850
   270       31.8945                  0.04347283106516
   271       31.9774                  0.02903358499714
   272       31.9952                  0.02850327401496
   273       32.0959                  0.01886596105764
   274       32.1445                  0.01412083207543
   275       32.2134                  0.01754652206066
   276       32.2656                  0.01934149870349
   277       32.4377                  0.01365079964225
   278       32.4766                  0.01337748376630
   279       32.5086                  0.01859316958750
   280       32.6045                  0.02036685978468
   281       32.6536                  0.01868446378417
   282       32.7780                  0.01209358669000
   283       32.8627                  0.02087968512722
   284       33.0047                  0.02510014852703
   285       33.0164                  0.03242463953778
   286       33.0491                  0.02869171510818
   287       33.0667                  0.03129433306284
   288       33.1232                  0.02681204311339
   289       33.2723                  0.01280439825798
   290       33.3317                  0.01712502129197
   291       33.4054                  0.01655077758360
   292       33.4711                  0.01930941383515
   293       33.5755                  0.02224111032926
   294       33.6159                  0.02186178132454
   295       33.6668                  0.01771210272115
   296       33.8014                  0.02246982775070
   297       33.8258                  0.02294188361912
   298       33.8623                  0.02577707039529
   299       33.9457                  0.02047811676182
   300       33.9497                  0.02867518635193
   301       34.0567                  0.01793730063756
   302       34.0816                  0.02112574847996
   303       34.2042                  0.01706248910231
   304       34.2978                  0.02449474981836
   305       34.3492                  0.02204108465275
   306       34.4352                  0.01564404958663
   307       34.5015                  0.02146141613252
   308       34.5805                  0.01325064714002
   309       34.6114                  0.01612964726764
   310       34.7365                  0.02110731905453
   311       34.7607                  0.01777017947898
   312       34.8497                  0.01888240372849
   313       34.8864                  0.01385997296346
   314       34.9719                  0.02351994426616
   315       35.0473                  0.02560397917162
   316       35.0825                  0.02650502701731
   317       35.1323                  0.02581337041350
   318       35.1951                  0.03402610193182
   319       35.2321                  0.02837585201714
   320       35.2722                  0.01838715531672
   321       35.3743                  0.01407204858097
   322       35.4919                  0.01655364522433
   323       35.5083                  0.01478592454172
   324       35.5454                  0.01569823544318
   325       35.7032                  0.01876272022628
   326       35.7410                  0.01906761305241
   327       35.8388                  0.01745197356286
   328       35.8547                  0.01413309089157
   329       35.9014                  0.01657905616168
   330       35.9983                  0.01404829507286
   331       36.0235                  0.01076482505939
   332       36.1487                  0.01654510926472
   333       36.1703                  0.01452106540226
   334       36.2732                  0.01642126148131
   335       36.3551                  0.02583735332405
   336       36.4212                  0.02127974218496
   337       36.4657                  0.02769302393308
   338       36.5098                  0.01806952004136
   339       36.6135                  0.01999848585974
   340       36.6387                  0.02331024067695
   341       36.7363                  0.01643260889346
   342       36.7785                  0.01251993179947
   343       36.9195                  0.04216492902926
   344       36.9794                  0.03522300636190
   345       36.9994                  0.03173893431731
   346       37.0792                  0.01501652750786
   347       37.1229                  0.01713619388420
   348       37.1727                  0.01453182083496
   349       37.2460                  0.01496972262704
   350       37.3160                  0.01330294523205
   351       37.4434                  0.01285164592375
   352       37.5416                  0.01426194844963
   353       37.6196                  0.01756782063328
   354       37.6978                  0.01073316093799
   355       37.7698                  0.01697534509823
   356       37.8622                  0.01523631296766
   357       37.9751                  0.02497534114046
   358       38.0409                  0.01560136417642
   359       38.1018                  0.02766258173490
   360       38.1810                  0.01853018599740
   361       38.2225                  0.02530929234354
   362       38.2986                  0.02042187643693
   363       38.4208                  0.01606502416923
   364       38.4370                  0.02187112100597
   365       38.5204                  0.01878905599760
   366       38.5381                  0.01934483248210
   367       38.6125                  0.01905259404924
   368       38.6856                  0.01703447571702
   369       38.7279                  0.01973379526772
   370       38.7695                  0.01720059527746
   371       38.9003                  0.02019577468376
   372       38.9111                  0.02847449420338
   373       38.9817                  0.02409387010590
   374       39.1245                  0.02104743404629
   375       39.1298                  0.01508993251229
   376       39.2433                  0.02164242221076
   377       39.2621                  0.02371989764340
   378       39.3149                  0.02914142696057
   379       39.4395                  0.01296341531664
   380       39.5074                  0.01175786375379
   381       39.6755                  0.01274825447768
   382       39.7945                  0.01184903269424
   383       39.8708                  0.01438377069732
   384       39.8955                  0.01759241549802
   385       39.9389                  0.01940156705543
   386       40.0576                  0.01740818749848
   387       40.0817                  0.01709401514580
   388       40.1610                  0.02404403562560
   389       40.1927                  0.02105569451404
   390       40.2620                  0.01561653461943
   391       40.3201                  0.02222413827685
   392       40.3792                  0.01966516245159
   393       40.4676                  0.01728142490716
   394       40.4716                  0.02497006676887
   395       40.6225                  0.02753900119086
   396       40.6823                  0.02094798141791
   397       40.7991                  0.02461487317941
   398       40.8397                  0.01809088378880
   399       40.8741                  0.01789767484922
   400       41.0891                  0.01320716166833
   401       41.1617                  0.02327914367606
   402       41.2118                  0.02936165832919
   403       41.2393                  0.02547400355290
   404       41.2962                  0.02275284277675
   405       41.3202                  0.02906666863641
   406       41.3948                  0.02185085252579
   407       41.4769                  0.01301184585160
   408       41.5587                  0.01897042203601
   409       41.6457                  0.01612741920363
   410       41.7818                  0.02276357391101
   411       41.7951                  0.02118935533351
   412       41.8410                  0.01691053806433
   413       41.9348                  0.01802493436470
   414       41.9669                  0.02123872366047
   415       42.0221                  0.02371560402663
   416       42.0820                  0.02224298094791
   417       42.2245                  0.02710096756039
   418       42.2554                  0.02486353299652
   419       42.3472                  0.01534385384626
   420       42.4055                  0.01671569160700
   421       42.4368                  0.01277845798468
   422       42.5196                  0.01759304545830
   423       42.6156                  0.01804169774502
   424       42.7140                  0.02042899604121
   425       42.7546                  0.01647951405401
   426       42.8507                  0.03906568909143
   427       42.9001                  0.02556598954034
   428       42.9508                  0.04258453544768
   429       42.9546                  0.01821854634757
   430       43.0544                  0.02357785020853
   431       43.0930                  0.02430465150846
   432       43.1197                  0.01490248077626
   433       43.1964                  0.01481102231226
   434       43.3316                  0.01737244654759
   435       43.3853                  0.01656317031325
   436       43.4665                  0.01509323308067
   437       43.5142                  0.01375952699973
   438       43.6695                  0.01651384309627
   439       43.7761                  0.01941363021638
   440       43.8322                  0.01738837114054
   441       43.9238                  0.01979332445580
   442       43.9743                  0.01946226127929
   443       44.0367                  0.02449597882206
   444       44.1035                  0.01396467566425
   445       44.2488                  0.01731633782276
   446       44.2737                  0.01609498151650
   447       44.3681                  0.01904086220081
   448       44.4200                  0.02053145967636
   449       44.4857                  0.01184677498691
   450       44.5966                  0.01800457332081
   451       44.7314                  0.01273264200579
   452       44.7645                  0.01860411688299
   453       44.8508                  0.01877862716189
   454       44.8909                  0.02563205217230
   455       44.9423                  0.02463875200444
   456       45.0018                  0.02903050076819
   457       45.0420                  0.02058586131328
   458       45.2462                  0.01645177328368
   459       45.3352                  0.02513324219477
   460       45.3652                  0.02154123657105
   461       45.4458                  0.02005832924364
   462       45.4823                  0.02313602132837
   463       45.5126                  0.02544408458444
   464       45.6411                  0.01596294425384
   465       45.6551                  0.02136075976420
   466       45.7436                  0.02118104470530
   467       45.8951                  0.01394151953101
   468       45.9258                  0.02112677097396
   469       45.9862                  0.01948523769163
   470       46.0811                  0.01575621805556
   471       46.1711                  0.01996681676313
   472       46.2261                  0.01614459743814
   473       46.2774                  0.02075854550158
   474       46.3631                  0.01991844853200
   475       46.4465                  0.01622555875202
   476       46.5795                  0.01380387629969
   477       46.6214                  0.01303819411602
   478       46.6608                  0.02200353505542
   479       46.7184                  0.01787330085945
   480       46.7704                  0.02047442096867
   481       46.9390                  0.01833751961822
   482       46.9478                  0.02418012827879
   483       47.0096                  0.01890220811952
   484       47.0996                  0.01747742189261
   485       47.1867                  0.01424643254042
   486       47.3166                  0.02281152623372
   487       47.3265                  0.01920609443095
   488       47.3983                  0.01500676601083
   489       47.4807                  0.01421763641138
   490       47.5640                  0.01101531860887
   491       47.7314                  0.01527884835183
   492       47.7486                  0.01574786964756
   493       47.8165                  0.01321154625328
   494       47.8614                  0.01556037105652
   495       47.9922                  0.02004908876307
   496       48.0280                  0.01723693866779
   497       48.0956                  0.01459771035464
   498       48.1597                  0.00930565932708
   499       48.3603                  0.01698664453796
   500       48.3658                  0.01761127317029
   501       48.4517                  0.01974153690983
   502       48.4857                  0.01865170672256
   503       48.5297                  0.01004645915988
   504       48.7078                  0.01236503654381
   505       48.8396                  0.01760607018993
   506       48.9191                  0.01206213022096
   507       48.9746                  0.00963672082349
   508       49.0108                  0.01720418328527
   509       49.1004                  0.02026795891428
   510       49.1807                  0.01795636090065
   511       49.1927                  0.01329033833510
   512       49.3466                  0.01368336718384
   513       49.3715                  0.01353382018094
   514       49.4776                  0.00926435341724
   515       49.5503                  0.01517186882634
   516       49.6663                  0.01291577707261
   517       49.6948                  0.01371434165666
   518       49.7138                  0.01499020989445
   519       49.8267                  0.01244109985438
   520       49.9241                  0.01002176803610
   521       50.0115                  0.01322782039412
   522       50.0630                  0.01029743070900
   523       50.1321                  0.01446157947070
   524       50.2603                  0.01101306769576
   525       50.2803                  0.01381471267086
   526       50.3742                  0.02621961240270
   527       50.4207                  0.01642618840451
   528       50.5272                  0.01862902445275
   529       50.5623                  0.00976355920768
   530       50.7255                  0.01066425081061
   531       50.8132                  0.01716632112403
   532       50.8736                  0.01125707988732
   533       50.9851                  0.01904568989452
   534       50.9964                  0.02286112398280
   535       51.0609                  0.02800710830315
   536       51.1500                  0.02515914787994
   537       51.1976                  0.02308590894085
   538       51.3551                  0.01352379187180
   539       51.4649                  0.01238118451367
   540       51.4911                  0.01527709852163
   541       51.5276                  0.01618739750507
   542       51.6389                  0.01466795587453
   543       51.7280                  0.00735744048133
   544       51.8972                  0.01508223277311
   545       51.9572                  0.02114178572471
   546       51.9962                  0.01397578243311
   547       52.0584                  0.02239239247874
   548       52.1606                  0.01072724047086
   549       52.2727                  0.00850246130870
   550       52.3260                  0.00861155248789
   551       52.4550                  0.01213527602420
   552       52.4890                  0.01121592902506
   553       52.5629                  0.01601502391581
   554       52.6552                  0.01729788556538
   555       52.6912                  0.02052157910538
   556       52.7964                  0.01556346001920
   557       52.8503                  0.01139457143541
   558       52.9548                  0.01939571045534
   559       53.0031                  0.01702975131081
   560       53.0268                  0.01952573070333
   561       53.1603                  0.01270265513116
   562       53.2720                  0.00987065572211
   563       53.3444                  0.01160617125446
   564       53.4662                  0.01249429043668
   565       53.5118                  0.01133928331239
   566       53.6110                  0.01020192028914
   567       53.6634                  0.00770397488014
   568       53.8292                  0.01061703368841
   569       53.9819                  0.02562206558242
   570       53.9885                  0.02012770571487
   571       54.0359                  0.01704594536057
   572       54.1658                  0.00981371287614
   573       54.3284                  0.01112149845519
   574       54.3986                  0.01571156798586
   575       54.4535                  0.00972474308849
   576       54.5270                  0.01652013388510
   577       54.6050                  0.02091581860680
   578       54.7211                  0.02113105154331
   579       54.7480                  0.01302552724136
   580       54.7655                  0.01997209367650
   581       54.9694                  0.02711937176343
   582       55.0055                  0.02627660294240
   583       55.1509                  0.00716867922032
   584       55.1646                  0.01042673311046
   585       55.2438                  0.00912536996713
   586       55.4195                  0.01273466630043
   587       55.4273                  0.00914988382448
   588       55.5911                  0.01790739036482
   589       55.6573                  0.01605761083505
   590       55.6913                  0.02402012020633
   591       55.7328                  0.02305884972744
   592       55.7392                  0.02590099257892
   593       55.8299                  0.01417099894766
   594       55.9525                  0.01222919217525
   595       56.0339                  0.00702513817313
   596       56.1947                  0.01163650145180
   597       56.2357                  0.00821551529058
   598       56.2755                  0.01122797953113
   599       56.3863                  0.01290348190515
   600       56.4467                  0.01085127247849
   601       56.5115                  0.00993569181771
   602       56.6033                  0.00839324530094
   603       56.7367                  0.00969632757166
   604       56.8419                  0.01396878353198
   605       56.9169                  0.00907480024370
   606       57.1073                  0.01351356675492
   607       57.2286                  0.01576783561835
   608       57.2947                  0.00894950717738
   609       57.4178                  0.00854217128496
   610       57.5105                  0.00856811381005
   611       57.6561                  0.00771776789370
   612       57.7097                  0.01167977947254
   613       57.7734                  0.01576360322221
   614       57.8592                  0.01153609658672
   615       57.9530                  0.01798465210989
   616       58.0132                  0.01940958383958
   617       58.0405                  0.02063331434007
   618       58.0719                  0.02188135451820
   619       58.1805                  0.02089122927586
   620       58.2638                  0.01266145207341
   621       58.3820                  0.01232740816623
   622       58.4887                  0.00941743269105
   623       58.6737                  0.00902862138032
   624       58.7041                  0.01328911009296
   625       58.8170                  0.00548476985649
   626       58.9637                  0.01099051392838
   627       59.0654                  0.01008443948566
   628       59.0707                  0.01227391902669
   629       59.1556                  0.01174300136592
   630       59.1932                  0.01294983205015
   631       59.3764                  0.01141009439007
   632       59.4833                  0.01353496800168
   633       59.5558                  0.01670020666016
   634       59.5933                  0.01492689478689
   635       59.6562                  0.01232841349967
   636       59.7231                  0.01536072730056
   637       59.9682                  0.01416778393083
   638       59.9777                  0.01493428795328
   639       60.0591                  0.01869481270377
   640       60.1227                  0.01591659083182
   641       60.2230                  0.01405693633913
   642       60.3120                  0.00861262817242
   643       60.4487                  0.00745173507383
   644       60.5023                  0.01152974562847
   645       60.5275                  0.00935678710972
   646       60.6970                  0.01377145656702
   647       60.7403                  0.00969631883057
   648       60.7945                  0.00937796416129
   649       60.8984                  0.00923626206646
   650       61.0254                  0.01012328146744
   651       61.1344                  0.01157714617364
   652       61.2125                  0.01301693787870
   653       61.2639                  0.01867311451191
   654       61.2900                  0.01695274900751
   655       61.4149                  0.01236303547443
   656       61.4826                  0.01407544620319
   657       61.5623                  0.01033255450614
   658       61.6866                  0.00662211033978
   659       61.7476                  0.00964972556316
   660       61.8472                  0.00909779839016
   661       62.0353                  0.00893009925050
   662       62.0729                  0.01370992134658
   663       62.1565                  0.01413554223552
   664       62.1990                  0.00913324264654
   665       62.3681                  0.00514847205179
   666       62.5405                  0.00814798962616
   667       62.5759                  0.00663342851032
   668       62.6969                  0.00790930059286
   669       62.8182                  0.00586989180980
   670       62.8695                  0.00634844278574
   671       63.0114                  0.01225399073180
   672       63.1062                  0.01701642133923
   673       63.2087                  0.00666150472035
   674       63.2770                  0.00627241884998
   675       63.3926                  0.00658625068574
   676       63.4673                  0.00828118888306
   677       63.5509                  0.00436639774420
   678       63.6328                  0.00604914597165
   679       63.7789                  0.00589335813327
   680       63.8633                  0.00671005277348
   681       63.9540                  0.01003246151246
   682       64.0107                  0.01245708305488
   683       64.1045                  0.00828394983402
   684       64.2124                  0.01786385251458
   685       64.2665                  0.01344844837808
   686       64.3734                  0.00742100131842
   687       64.4695                  0.00770423162501
   688       64.4859                  0.00915520125521
   689       64.6549                  0.00997693766118
   690       64.6822                  0.01002795677219
   691       64.8490                  0.00292438311736
   692       65.0638                  0.00291602560368
   693       65.1329                  0.00414022847081
   694       65.2662                  0.00592577415779
   695       65.4101                  0.00629796914482
   696       65.4987                  0.00640951241603
   697       65.5898                  0.00468634384683
   698       65.7096                  0.00485996219593
   699       65.8943                  0.00391251019194
   700       66.0443                  0.00352149283026
   701       66.1847                  0.00329787139253
   702       66.3292                  0.00453648096484
   703       66.3921                  0.00950438810817
   704       66.4705                  0.00908945823925
   705       66.5736                  0.00570233566651
   706       66.7284                  0.00544293279169
   707       66.8066                  0.00762665494060
   708       66.9576                  0.00734856016918
   709       67.0153                  0.00809314521955
   710       67.2512                  0.00431489625134
   711       67.4019                  0.00337215237063
   712       67.5116                  0.00367858571675
   713       67.7367                  0.00472922775267
   714       67.8079                  0.00605792014973
   715       67.8937                  0.00773642204087
   716       67.9674                  0.00694973146089
   717       68.1264                  0.00370882440440
   718       68.3097                  0.00430953409684
   719       68.4276                  0.00260437383194
   720       68.8271                  0.00394553326420
   721       68.9283                  0.00438494333801
   722       68.9850                  0.00374374643810
   723       69.2094                  0.00568495323970
   724       69.2802                  0.00602034832870
   725       69.4547                  0.00376211173927
   726       69.5707                  0.00302012910724
   727       69.8195                  0.00385959563719
   728       69.8483                  0.00341813758188
   729       70.0331                  0.00381294703851
   730       70.1110                  0.00394437763152
   731       70.2036                  0.00390603971249
   732       70.3872                  0.00243165328216
   733       70.5281                  0.00442229124356
   734       70.6101                  0.00356796169357
   735       70.8812                  0.00117435757700
   736       71.0965                  0.00103182793433
   737       71.3070                  0.00156617785871
   738       71.6836                  0.00320171735536
   739       71.8018                  0.00331402513523
   740       71.9721                  0.00173650288485
   741       72.2651                  0.00140843699274
   742       72.7941                  0.00176207590439
   743       72.8602                  0.00179542768599
   744       73.3670                  0.00455387815910
   745       73.4067                  0.00425575272568
   746       73.6823                  0.00167541208671
   747       73.8168                  0.00121370004044
   748       74.0319                  0.00237507421619
   749       74.1519                  0.00337998836955
   750       74.3035                  0.00209906945231
   751       74.6422                  0.00104526705632
   752       75.2851                  0.00053150834278
   753       75.4212                  0.00106719016319
   754       76.2103                  0.00282939728246
   755       76.3446                  0.00235414607106
   756       76.5906                  0.00083069707607
   757       76.8502                  0.00407161626986
   758       76.9126                  0.00388107471185
   759       77.4417                  0.00119489330141
   760       77.6652                  0.00053026600607
   761       78.0298                  0.00070417525691
   762       78.3023                  0.00053505855630
   763       78.5114                  0.00041949650043
   764       79.4656                  0.00020147443299
   765       81.2291                  0.00032396395089
   766       82.4449                  0.00017108449748
   767       82.8510                  0.00029225729236
   768       86.3543                  0.00009873539466
--------------------------------------------------------------------------------

--------------------------------------------------------------------------------
  Phonon properties (per mole of unit cells): Temperature =      0.000 K
--------------------------------------------------------------------------------
  Zero point energy            =        1.930227 eV
--------------------------------------------------------------------------------

  Phonon density of states : 

--------------------------------------------------------------------------------
 Frequency (cm-1) Density of States                                             
--------------------------------------------------------------------------------
    0.00000 |**                                                            0.001
    1.34929 |                                                              0.000
    2.69857 |**                                                            0.001
    4.04786 |**                                                            0.001
    5.39715 |***********                                                   0.005
    6.74644 |***********                                                   0.005
    8.09572 |********************                                          0.009
    9.44501 |**********************                                        0.010
   10.79430 |****************************                                  0.013
   12.14358 |*************************                                     0.012
   13.49287 |**********************************                            0.016
   14.84216 |*******************************                               0.014
   16.19145 |*************************************                         0.017
   17.54073 |****************************************                      0.018
   18.89002 |************************************************              0.022
   20.23931 |******************************************                    0.020
   21.58859 |************************************************              0.022
   22.93788 |***************************************************           0.023
   24.28717 |******************************************************        0.025
   25.63646 |************************************************              0.022
   26.98574 |*********************************************************     0.026
   28.33503 |***************************************************           0.023
   29.68432 |******************************************************        0.025
   31.03361 |******************************************************        0.025
   32.38289 |******************************************************        0.025
   33.73218 |*********************************************************     0.026
   35.08147 |************************************************************  0.027
   36.43075 |******************************************************        0.025
   37.78004 |******************************************************        0.025
   39.12933 |*********************************************************     0.026
   40.47862 |************************************************              0.022
   41.82790 |************************************************************  0.027
   43.17719 |************************************************              0.022
   44.52648 |************************************************              0.022
   45.87576 |******************************************************        0.025
   47.22505 |***************************************************           0.023
   48.57434 |*********************************************                 0.021
   49.92363 |***************************************************           0.023
   51.27291 |*********************************************                 0.021
   52.62220 |******************************************                    0.020
   53.97149 |************************************************              0.022
   55.32077 |************************************************              0.022
   56.67006 |****************************************                      0.018
   58.01935 |****************************************                      0.018
   59.36864 |*********************************************                 0.021
   60.71792 |******************************************                    0.020
   62.06721 |****************************************                      0.018
   63.41650 |******************************************                    0.020
   64.76578 |****************************                                  0.013
   66.11507 |*******************************                               0.014
   67.46436 |**********************                                        0.010
   68.81365 |*******************************                               0.014
   70.16293 |********************                                          0.009
   71.51222 |*****************                                             0.008
   72.86151 |*****************                                             0.008
   74.21079 |***********                                                   0.005
   75.56008 |***********                                                   0.005
   76.90937 |***********                                                   0.005
   78.25866 |********                                                      0.004
   79.60794 |                                                              0.000
   80.95723 |**                                                            0.001
   82.30652 |*****                                                         0.003
   83.65581 |                                                              0.000
   85.00509 |**                                                            0.001
--------------------------------------------------------------------------------



  XYZ File written as gulp.xyz                                


  Time to end of properties =      41.8306 seconds


  Peak dynamic memory used =      10.73 MB 


  Timing analysis for GULP :

--------------------------------------------------------------------------------
  Task / Subroutine                                          Time (Seconds)
--------------------------------------------------------------------------------
  Calculation of real space energy and derivatives                0.0960
  Calculation of phonons                                         40.1385
  Calculation of scattering                                       0.0000
--------------------------------------------------------------------------------
  Total CPU time                                                 41.8306
--------------------------------------------------------------------------------


  Job Finished at 19:29.07 27th April      2013                               

