********************************************************************************
*                       GENERAL UTILITY LATTICE PROGRAM                        *
*                                 Julian Gale                                  *
*                      Nanochemistry Research Institute                        *
*                           Department of Chemistry                            *
*                    Curtin University, Western Australia                      *
********************************************************************************
* Version = 4.0.7 * Last modified =  14th December 2012                        *
********************************************************************************
*  single       - perform a single point run                                   *
*  phonon       - calculate phonons for final geometry                         *
*  thermal      - calculate thermal conductivity for final geometry            *
********************************************************************************

  Job Started  at 19:27.15 27th April      2013                               

  Number of CPUs =     1


  Total number of configurations input =   1

********************************************************************************
*  Input for Configuration =   1                                               *
********************************************************************************

  Formula = Ar256                                                       

  Number of irreducible atoms/shells =     256


  Total number atoms/shells =     256

  Dimensionality = 3               :  Bulk   



  Cartesian lattice vectors (Angstroms) :

       21.483900    0.000000    0.000000
        0.000000   21.483900    0.000000
        0.000000    0.000000   21.483900

  Cell parameters (Angstroms/Degrees):

  a =      21.4839    alpha =  90.0000
  b =      21.4839    beta  =  90.0000
  c =      21.4839    gamma =  90.0000

  Initial cell volume =        9916.065040 Angs**3

  Temperature of configuration =  0.000     K 

  Pressure of configuration =         0.000 GPa 

  Fractional coordinates of asymmetric unit :

--------------------------------------------------------------------------------
   No.  Atomic       x           y          z         Charge      Occupancy
        Label      (Frac)      (Frac)     (Frac)        (e)         (Frac)  
--------------------------------------------------------------------------------
      1 Ar    c    0.498420    0.342613    0.995727     0.00000    1.000000    
      2 Ar    c    0.819032    0.630435    0.617365     0.00000    1.000000    
      3 Ar    c    0.643919    0.102986    0.041318     0.00000    1.000000    
      4 Ar    c    0.978398    0.073293    0.727684     0.00000    1.000000    
      5 Ar    c    0.700227    0.132449    0.200386     0.00000    1.000000    
      6 Ar    c    0.790117    0.538170    0.479568     0.00000    1.000000    
      7 Ar    c    0.676665    0.535955    0.356698     0.00000    1.000000    
      8 Ar    c    0.646405    0.849832    0.942096     0.00000    1.000000    
      9 Ar    c    0.107862    0.300388    0.268103     0.00000    1.000000    
     10 Ar    c    0.187631    0.550328    0.853076     0.00000    1.000000    
     11 Ar    c    0.851493    0.398066    0.170143     0.00000    1.000000    
     12 Ar    c    0.473396    0.074905    0.516666     0.00000    1.000000    
     13 Ar    c    0.968902    0.547936    0.309236     0.00000    1.000000    
     14 Ar    c    0.589004    0.957415    0.478824     0.00000    1.000000    
     15 Ar    c    0.939545    0.860672    0.110589     0.00000    1.000000    
     16 Ar    c    0.479173    0.407309    0.834620     0.00000    1.000000    
     17 Ar    c    0.866654    0.944405    0.364848     0.00000    1.000000    
     18 Ar    c    0.458981    0.088899    0.343327     0.00000    1.000000    
     19 Ar    c    0.807498    0.490377    0.886734     0.00000    1.000000    
     20 Ar    c    0.350193    0.427091    0.967385     0.00000    1.000000    
     21 Ar    c    0.237545    0.126725    0.926666     0.00000    1.000000    
     22 Ar    c    0.280481    0.732800    0.570045     0.00000    1.000000    
     23 Ar    c    0.924432    0.215421    0.872523     0.00000    1.000000    
     24 Ar    c    0.568970    0.077532    0.813684     0.00000    1.000000    
     25 Ar    c    0.686714    0.366573    0.264418     0.00000    1.000000    
     26 Ar    c    0.722890    0.334953    0.697648     0.00000    1.000000    
     27 Ar    c    0.774687    0.739335    0.937218     0.00000    1.000000    
     28 Ar    c    0.939862    0.031460    0.044624     0.00000    1.000000    
     29 Ar    c    0.601474    0.564474    0.060838     0.00000    1.000000    
     30 Ar    c    0.242228    0.320063    0.385470     0.00000    1.000000    
     31 Ar    c    0.126239    0.149847    0.333813     0.00000    1.000000    
     32 Ar    c    0.395487    0.628270    0.651088     0.00000    1.000000    
     33 Ar    c    0.576567    0.652987    0.209138     0.00000    1.000000    
     34 Ar    c    0.942571    0.029297    0.552176     0.00000    1.000000    
     35 Ar    c    0.812846    0.647862    0.792319     0.00000    1.000000    
     36 Ar    c    0.193091    0.817687    0.014319     0.00000    1.000000    
     37 Ar    c    0.354512    0.331788    0.104515     0.00000    1.000000    
     38 Ar    c    0.105055    0.989048    0.297683     0.00000    1.000000    
     39 Ar    c    0.562989    0.490474    0.477385     0.00000    1.000000    
     40 Ar    c    0.390280    0.687110    0.815062     0.00000    1.000000    
     41 Ar    c    0.682106    0.767631    0.636751     0.00000    1.000000    
     42 Ar    c    0.965388    0.377129    0.305644     0.00000    1.000000    
     43 Ar    c    0.258182    0.899585    0.510904     0.00000    1.000000    
     44 Ar    c    0.534344    0.535717    0.635755     0.00000    1.000000    
     45 Ar    c    0.961781    0.933992    0.831376     0.00000    1.000000    
     46 Ar    c    0.252232    0.182899    0.633316     0.00000    1.000000    
     47 Ar    c    0.446795    0.111637    0.051183     0.00000    1.000000    
     48 Ar    c    0.428311    0.460261    0.368806     0.00000    1.000000    
     49 Ar    c    0.418244    0.562053    0.233605     0.00000    1.000000    
     50 Ar    c    0.840159    0.890188    0.527428     0.00000    1.000000    
     51 Ar    c    0.654727    0.624598    0.531700     0.00000    1.000000    
     52 Ar    c    0.505681    0.805547    0.178151     0.00000    1.000000    
     53 Ar    c    0.025033    0.210325    0.470012     0.00000    1.000000    
     54 Ar    c    0.122766    0.072180    0.037809     0.00000    1.000000    
     55 Ar    c    0.267947    0.680207    0.114213     0.00000    1.000000    
     56 Ar    c    0.619455    0.936208    0.106645     0.00000    1.000000    
     57 Ar    c    0.363899    0.220406    0.505872     0.00000    1.000000    
     58 Ar    c    0.928961    0.627256    0.470231     0.00000    1.000000    
     59 Ar    c    0.117632    0.965248    0.764228     0.00000    1.000000    
     60 Ar    c    0.657232    0.747676    0.806627     0.00000    1.000000    
     61 Ar    c    0.450861    0.956367    0.110502     0.00000    1.000000    
     62 Ar    c    0.202760    0.679783    0.423071     0.00000    1.000000    
     63 Ar    c    0.926173    0.191413    0.610876     0.00000    1.000000    
     64 Ar    c    0.523075    0.608930    0.361841     0.00000    1.000000    
     65 Ar    c    0.820093    0.633619    0.335602     0.00000    1.000000    
     66 Ar    c    0.086279    0.367382    0.429321     0.00000    1.000000    
     67 Ar    c    0.910966    0.478084    0.028333     0.00000    1.000000    
     68 Ar    c    0.599812    0.787636    0.492215     0.00000    1.000000    
     69 Ar    c    0.612854    0.391340    0.113324     0.00000    1.000000    
     70 Ar    c    0.774073    0.734015    0.493369     0.00000    1.000000    
     71 Ar    c    0.877634    0.309980    0.016574     0.00000    1.000000    
     72 Ar    c    0.025771    0.237403    0.736519     0.00000    1.000000    
     73 Ar    c    0.869535    0.154522    0.157049     0.00000    1.000000    
     74 Ar    c    0.311009    0.598802    0.968618     0.00000    1.000000    
     75 Ar    c    0.758833    0.841868    0.084146     0.00000    1.000000    
     76 Ar    c    0.629090    0.079294    0.355843     0.00000    1.000000    
     77 Ar    c    0.307970    0.511523    0.116477     0.00000    1.000000    
     78 Ar    c    0.426141    0.806483    0.521460     0.00000    1.000000    
     79 Ar    c    0.822909    0.461528    0.322751     0.00000    1.000000    
     80 Ar    c    0.355969    0.046062    0.213793     0.00000    1.000000    
     81 Ar    c    0.136875    0.465390    0.288123     0.00000    1.000000    
     82 Ar    c    0.492722    0.655966    0.518756     0.00000    1.000000    
     83 Ar    c    0.225439    0.021572    0.632511     0.00000    1.000000    
     84 Ar    c    0.195512    0.186523    0.477972     0.00000    1.000000    
     85 Ar    c    0.420380    0.196510    0.204060     0.00000    1.000000    
     86 Ar    c    0.303982    0.854323    0.824776     0.00000    1.000000    
     87 Ar    c    0.863046    0.897560    0.963382     0.00000    1.000000    
     88 Ar    c    0.044296    0.729774    0.406486     0.00000    1.000000    
     89 Ar    c    0.540484    0.364041    0.680384     0.00000    1.000000    
     90 Ar    c    0.037344    0.073664    0.891007     0.00000    1.000000    
     91 Ar    c    0.564395    0.037349    0.652624     0.00000    1.000000    
     92 Ar    c    0.985664    0.059130    0.388745     0.00000    1.000000    
     93 Ar    c    0.541764    0.989588    0.956735     0.00000    1.000000    
     94 Ar    c    0.723002    0.389457    0.436365     0.00000    1.000000    
     95 Ar    c    0.919670    0.771936    0.840872     0.00000    1.000000    
     96 Ar    c    0.828653    0.402783    0.572801     0.00000    1.000000    
     97 Ar    c    0.753611    0.423768    0.033878     0.00000    1.000000    
     98 Ar    c    0.124281    0.798398    0.543030     0.00000    1.000000    
     99 Ar    c    0.674133    0.597042    0.886436     0.00000    1.000000    
    100 Ar    c    0.664777    0.704407    0.356998     0.00000    1.000000    
    101 Ar    c    0.150524    0.557985    0.142630     0.00000    1.000000    
    102 Ar    c    0.269624    0.980078    0.352520     0.00000    1.000000    
    103 Ar    c    0.224837    0.306071    0.985505     0.00000    1.000000    
    104 Ar    c    0.907563    0.625198    0.935556     0.00000    1.000000    
    105 Ar    c    0.375720    0.243717    0.941905     0.00000    1.000000    
    106 Ar    c    0.950749    0.517122    0.619250     0.00000    1.000000    
    107 Ar    c    0.237118    0.569254    0.562891     0.00000    1.000000    
    108 Ar    c    0.079271    0.948869    0.601190     0.00000    1.000000    
    109 Ar    c    0.616289    0.303302    0.826805     0.00000    1.000000    
    110 Ar    c    0.966133    0.205197    0.311294     0.00000    1.000000    
    111 Ar    c    0.198234    0.959630    0.917818     0.00000    1.000000    
    112 Ar    c    0.915113    0.993400    0.213000     0.00000    1.000000    
    113 Ar    c    0.747597    0.681869    0.189324     0.00000    1.000000    
    114 Ar    c    0.672122    0.610876    0.703918     0.00000    1.000000    
    115 Ar    c    0.007133    0.898477    0.452270     0.00000    1.000000    
    116 Ar    c    0.803066    0.491438    0.716229     0.00000    1.000000    
    117 Ar    c    0.977527    0.286210    0.159429     0.00000    1.000000    
    118 Ar    c    0.380658    0.933280    0.948631     0.00000    1.000000    
    119 Ar    c    0.714805    0.513990    0.183120     0.00000    1.000000    
    120 Ar    c    0.134221    0.228492    0.109538     0.00000    1.000000    
    121 Ar    c    0.091989    0.551278    0.424606     0.00000    1.000000    
    122 Ar    c    0.508767    0.210246    0.610764     0.00000    1.000000    
    123 Ar    c    0.224141    0.453362    0.703820     0.00000    1.000000    
    124 Ar    c    0.539674    0.690084    0.929594     0.00000    1.000000    
    125 Ar    c    0.633223    0.731720    0.067855     0.00000    1.000000    
    126 Ar    c    0.726958    0.035330    0.757041     0.00000    1.000000    
    127 Ar    c    0.124176    0.732069    0.704737     0.00000    1.000000    
    128 Ar    c    0.953123    0.768231    0.554708     0.00000    1.000000    
    129 Ar    c    0.485457    0.823324    0.843944     0.00000    1.000000    
    130 Ar    c    0.670288    0.283029    0.984398     0.00000    1.000000    
    131 Ar    c    0.393952    0.517425    0.521809     0.00000    1.000000    
    132 Ar    c    0.554252    0.934607    0.300959     0.00000    1.000000    
    133 Ar    c    0.251409    0.629076    0.721196     0.00000    1.000000    
    134 Ar    c    0.229965    0.917138    0.201668     0.00000    1.000000    
    135 Ar    c    0.945448    0.462177    0.455419     0.00000    1.000000    
    136 Ar    c    0.258325    0.591108    0.272235     0.00000    1.000000    
    137 Ar    c    0.993260    0.186760    0.024047     0.00000    1.000000    
    138 Ar    c    0.541229    0.188612    0.935636     0.00000    1.000000    
    139 Ar    c    0.073281    0.640168    0.564334     0.00000    1.000000    
    140 Ar    c    0.660141    0.817673    0.230234     0.00000    1.000000    
    141 Ar    c    0.563762    0.360860    0.375483     0.00000    1.000000    
    142 Ar    c    0.705514    0.162942    0.868599     0.00000    1.000000    
    143 Ar    c    0.351982    0.525114    0.821978     0.00000    1.000000    
    144 Ar    c    0.889252    0.781273    0.387004     0.00000    1.000000    
    145 Ar    c    0.496060    0.780147    0.356777     0.00000    1.000000    
    146 Ar    c    0.043405    0.519957    0.939848     0.00000    1.000000    
    147 Ar    c    0.614106    0.913321    0.779658     0.00000    1.000000    
    148 Ar    c    0.077599    0.946793    0.140291     0.00000    1.000000    
    149 Ar    c    0.780403    0.010631    0.097161     0.00000    1.000000    
    150 Ar    c    0.618123    0.444246    0.938391     0.00000    1.000000    
    151 Ar    c    0.578242    0.223413    0.277822     0.00000    1.000000    
    152 Ar    c    0.421995    0.941682    0.424464     0.00000    1.000000    
    153 Ar    c    0.136881    0.297525    0.586393     0.00000    1.000000    
    154 Ar    c    0.094979    0.563571    0.711496     0.00000    1.000000    
    155 Ar    c    0.943739    0.705370    0.233747     0.00000    1.000000    
    156 Ar    c    0.107668    0.463918    0.569082     0.00000    1.000000    
    157 Ar    c    0.257233    0.491121    0.411756     0.00000    1.000000    
    158 Ar    c    0.262168    0.253925    0.225946     0.00000    1.000000    
    159 Ar    c    0.134624    0.393667    0.865685     0.00000    1.000000    
    160 Ar    c    0.355305    0.760258    0.961925     0.00000    1.000000    
    161 Ar    c    0.342565    0.830492    0.111607     0.00000    1.000000    
    162 Ar    c    0.446699    0.963317    0.764479     0.00000    1.000000    
    163 Ar    c    0.891374    0.342993    0.723207     0.00000    1.000000    
    164 Ar    c    0.471991    0.539488    0.949958     0.00000    1.000000    
    165 Ar    c    0.185762    0.386243    0.142065     0.00000    1.000000    
    166 Ar    c    0.223191    0.714284    0.863568     0.00000    1.000000    
    167 Ar    c    0.017315    0.455513    0.161991     0.00000    1.000000    
    168 Ar    c    0.098596    0.232402    0.896676     0.00000    1.000000    
    169 Ar    c    0.538934    0.871955    0.631450     0.00000    1.000000    
    170 Ar    c    0.766444    0.592029    0.032696     0.00000    1.000000    
    171 Ar    c    0.650994    0.182092    0.698756     0.00000    1.000000    
    172 Ar    c    0.280987    0.002434    0.063624     0.00000    1.000000    
    173 Ar    c    0.097884    0.824459    0.850558     0.00000    1.000000    
    174 Ar    c    0.818762    0.187567    0.742295     0.00000    1.000000    
    175 Ar    c    0.717351    0.000000    0.929813     0.00000    1.000000    
    176 Ar    c    0.156411    0.853895    0.382336     0.00000    1.000000    
    177 Ar    c    0.411360    0.087033    0.882777     0.00000    1.000000    
    178 Ar    c    0.679560    0.467224    0.598453     0.00000    1.000000    
    179 Ar    c    0.707842    0.223793    0.400694     0.00000    1.000000    
    180 Ar    c    0.475994    0.224109    0.781604     0.00000    1.000000    
    181 Ar    c    0.050359    0.403463    0.719837     0.00000    1.000000    
    182 Ar    c    0.310455    0.191381    0.792305     0.00000    1.000000    
    183 Ar    c    0.877527    0.309268    0.436112     0.00000    1.000000    
    184 Ar    c    0.819888    0.271017    0.280243     0.00000    1.000000    
    185 Ar    c    0.723793    0.971942    0.255017     0.00000    1.000000    
    186 Ar    c    0.532869    0.712780    0.692393     0.00000    1.000000    
    187 Ar    c    0.088560    0.125291    0.604751     0.00000    1.000000    
    188 Ar    c    0.859830    0.060358    0.863172     0.00000    1.000000    
    189 Ar    c    0.404442    0.286843    0.352995     0.00000    1.000000    
    190 Ar    c    0.397275    0.103689    0.676251     0.00000    1.000000    
    191 Ar    c    0.700436    0.936189    0.615228     0.00000    1.000000    
    192 Ar    c    0.829319    0.833657    0.238558     0.00000    1.000000    
    193 Ar    c    0.445560    0.660820    0.083554     0.00000    1.000000    
    194 Ar    c    0.949311    0.529420    0.794628     0.00000    1.000000    
    195 Ar    c    0.300374    0.148260    0.347819     0.00000    1.000000    
    196 Ar    c    0.871909    0.564758    0.173118     0.00000    1.000000    
    197 Ar    c    0.786654    0.321834    0.862967     0.00000    1.000000    
    198 Ar    c    0.543286    0.071721    0.192996     0.00000    1.000000    
    199 Ar    c    0.388745    0.802731    0.688990     0.00000    1.000000    
    200 Ar    c    0.498466    0.828388    0.015367     0.00000    1.000000    
    201 Ar    c    0.749319    0.018488    0.457619     0.00000    1.000000    
    202 Ar    c    0.045534    0.920810    0.978575     0.00000    1.000000    
    203 Ar    c    0.457318    0.359895    0.521525     0.00000    1.000000    
    204 Ar    c    0.145749    0.648905    0.997230     0.00000    1.000000    
    205 Ar    c    0.777997    0.876289    0.818180     0.00000    1.000000    
    206 Ar    c    0.644618    0.462857    0.774659     0.00000    1.000000    
    207 Ar    c    0.198125    0.089048    0.194150     0.00000    1.000000    
    208 Ar    c    0.309505    0.061619    0.494938     0.00000    1.000000    
    209 Ar    c    0.820503    0.100244    0.311468     0.00000    1.000000    
    210 Ar    c    0.563510    0.486485    0.248576     0.00000    1.000000    
    211 Ar    c    0.191318    0.475249    0.001778     0.00000    1.000000    
    212 Ar    c    0.184197    0.291606    0.744795     0.00000    1.000000    
    213 Ar    c    0.870340    0.714772    0.078013     0.00000    1.000000    
    214 Ar    c    0.521302    0.578084    0.796164     0.00000    1.000000    
    215 Ar    c    0.560201    0.230756    0.110299     0.00000    1.000000    
    216 Ar    c    0.393050    0.455783    0.677931     0.00000    1.000000    
    217 Ar    c    0.371353    0.293236    0.666173     0.00000    1.000000    
    218 Ar    c    0.478637    0.351111    0.218254     0.00000    1.000000    
    219 Ar    c    0.310884    0.416521    0.257248     0.00000    1.000000    
    220 Ar    c    0.838498    0.787571    0.683833     0.00000    1.000000    
    221 Ar    c    0.745679    0.274182    0.128309     0.00000    1.000000    
    222 Ar    c    0.860323    0.146720    0.462303     0.00000    1.000000    
    223 Ar    c    0.378680    0.720377    0.245680     0.00000    1.000000    
    224 Ar    c    0.962605    0.672043    0.700054     0.00000    1.000000    
    225 Ar    c    0.809443    0.153920    0.000000     0.00000    1.000000    
    226 Ar    c    0.006346    0.854831    0.279120     0.00000    1.000000    
    227 Ar    c    0.287238    0.019885    0.787255     0.00000    1.000000    
    228 Ar    c    0.055051    0.358883    0.020211     0.00000    1.000000    
    229 Ar    c    0.390343    0.891482    0.264987     0.00000    1.000000    
    230 Ar    c    0.005102    0.614833    0.085439     0.00000    1.000000    
    231 Ar    c    0.789629    0.083612    0.609042     0.00000    1.000000    
    232 Ar    c    0.957857    0.381639    0.878476     0.00000    1.000000    
    233 Ar    c    0.320488    0.800772    0.388935     0.00000    1.000000    
    234 Ar    c    0.098104    0.644757    0.273850     0.00000    1.000000    
    235 Ar    c    0.315962    0.358676    0.819604     0.00000    1.000000    
    236 Ar    c    0.140119    0.024057    0.463156     0.00000    1.000000    
    237 Ar    c    0.053887    0.661281    0.847155     0.00000    1.000000    
    238 Ar    c    0.216703    0.760272    0.256964     0.00000    1.000000    
    239 Ar    c    0.387811    0.951955    0.604387     0.00000    1.000000    
    240 Ar    c    0.363614    0.635215    0.402324     0.00000    1.000000    
    241 Ar    c    0.000000    0.841998    0.699831     0.00000    1.000000    
    242 Ar    c    0.981549    0.345018    0.573211     0.00000    1.000000    
    243 Ar    c    0.152349    0.126757    0.768073     0.00000    1.000000    
    244 Ar    c    0.864689    0.954012    0.689405     0.00000    1.000000    
    245 Ar    c    0.280734    0.384520    0.548397     0.00000    1.000000    
    246 Ar    c    0.643175    0.128182    0.531477     0.00000    1.000000    
    247 Ar    c    0.225723    0.861082    0.675636     0.00000    1.000000    
    248 Ar    c    0.293504    0.172883    0.080046     0.00000    1.000000    
    249 Ar    c    0.010391    0.756934    0.986376     0.00000    1.000000    
    250 Ar    c    0.621335    0.313572    0.541494     0.00000    1.000000    
    251 Ar    c    0.529341    0.211496    0.439593     0.00000    1.000000    
    252 Ar    c    0.466214    0.471418    0.101119     0.00000    1.000000    
    253 Ar    c    0.086977    0.762804    0.142293     0.00000    1.000000    
    254 Ar    c    0.717021    0.864042    0.390249     0.00000    1.000000    
    255 Ar    c    0.032033    0.112601    0.184133     0.00000    1.000000    
    256 Ar    c    0.771019    0.244999    0.564665     0.00000    1.000000    
--------------------------------------------------------------------------------


  Brillouin zone sampling points :

--------------------------------------------------------------------------------
  Point number          x          y          z            Weight
--------------------------------------------------------------------------------
        1           0.000000   0.000000   0.000000         1.0000
--------------------------------------------------------------------------------


********************************************************************************
*  General input information                                                   *
********************************************************************************

  Species output for all configurations : 

--------------------------------------------------------------------------------
  Species    Type    Atomic    Atomic    Charge       Radii (Angs)     Library
                     Number     Mass       (e)     Cova   Ionic  VDW   Symbol
--------------------------------------------------------------------------------
    Ar       Core       18      39.95   0.000000   0.000  0.000  0.000          
--------------------------------------------------------------------------------


  Lattice summation method               =    Ewald          (3-D)
                                         =    Parry          (2-D)
                                         =    Saunders et al (1-D)
  Accuracy factor for lattice sums       =   12.000


  Time limit = Infinity

  Maximum range for interatomic potentials =    100000.000000 Angstroms

  General interatomic potentials :

--------------------------------------------------------------------------------
Atom  Types   Potential         A         B         C         D     Cutoffs(Ang)
  1     2                                                            Min    Max 
--------------------------------------------------------------------------------
Ar   c Ar   c Lennard 12  6 0.995E+05  64.4      0.00      0.00     0.000  8.500
--------------------------------------------------------------------------------

********************************************************************************
*  Output for configuration   1                                                *
********************************************************************************


  Components of energy : 

--------------------------------------------------------------------------------
  Interatomic potentials     =         -19.69423482 eV
  Monopole - monopole (real) =           0.00000000 eV
  Monopole - monopole (recip)=           0.00000000 eV
  Monopole - monopole (total)=           0.00000000 eV
--------------------------------------------------------------------------------
  Total lattice energy       =         -19.69423482 eV
--------------------------------------------------------------------------------
  Total lattice energy       =           -1900.1926 kJ/(mole unit cells)
--------------------------------------------------------------------------------


  Elastic Constant Matrix: (Units=GPa)

-------------------------------------------------------------------------------
  Indices      1         2         3         4         5         6    
-------------------------------------------------------------------------------
       1      3.3862    2.2967    1.9120   -0.1483    0.0528   -0.0623
       2      2.2967    3.7132    1.8664   -0.0649   -0.0715    0.2468
       3      1.9120    1.8664    3.4888    0.2074    0.0732    0.0729
       4     -0.1483   -0.0649    0.2074    0.5493   -0.0062   -0.0765
       5      0.0528   -0.0715    0.0732   -0.0062    0.6989    0.0830
       6     -0.0623    0.2468    0.0729   -0.0765    0.0830    0.6703
-------------------------------------------------------------------------------


  Elastic Compliance Matrix: (Units=1/GPa)

-------------------------------------------------------------------------------
  Indices      1         2         3         4         5         6    
-------------------------------------------------------------------------------
       1    0.628619 -0.300204 -0.201288  0.241064 -0.082083  0.228510
       2   -0.300204  0.530955 -0.116996 -0.004151  0.115988 -0.225497
       3   -0.201288 -0.116996  0.476711 -0.255806 -0.042875 -0.051343
       4    0.241064 -0.004151 -0.255806  2.021062 -0.007421  0.283261
       5   -0.082083  0.115988 -0.042875 -0.007421  1.480589 -0.229905
       6    0.228510 -0.225497 -0.051343  0.283261 -0.229905  1.662596
-------------------------------------------------------------------------------

  Mechanical properties :

-------------------------------------------------------------------------------
  Convention :                    Reuss         Voigt         Hill
-------------------------------------------------------------------------------
  Bulk  Modulus (GPa)     =       2.50432       2.52649       2.51540
  Shear Modulus (GPa)     =       0.61195       0.68457       0.64826
-------------------------------------------------------------------------------
  Velocity S-wave (km/s)  =       0.59775       0.63222       0.61523
  Velocity P-wave (km/s)  =       1.39235       1.41708       1.40477
-------------------------------------------------------------------------------
  Compressibility (1/GPa) =    0.39931061
-------------------------------------------------------------------------------
  Stress axis :                     x             y             z
-------------------------------------------------------------------------------
  Youngs Moduli (GPa)     =       1.59079       1.88340       2.09771
-------------------------------------------------------------------------------
  Poissons Ratio (x)      =                     0.56540       0.42224
  Poissons Ratio (y)      =       0.47756                     0.24542
  Poissons Ratio (z)      =       0.32021       0.22035
-------------------------------------------------------------------------------


  Piezoelectric Strain Matrix: (Units=C/m**2)

-------------------------------------------------------------------------------
  Indices      1         2         3         4         5         6    
-------------------------------------------------------------------------------
       x    -0.00000  -0.00000  -0.00000  -0.00000  -0.00000  -0.00000
       y    -0.00000  -0.00000  -0.00000  -0.00000  -0.00000  -0.00000
       z    -0.00000  -0.00000  -0.00000  -0.00000  -0.00000  -0.00000
-------------------------------------------------------------------------------


  Piezoelectric Stress Matrix: (Units=10**-11 C/N)

-------------------------------------------------------------------------------
  Indices      1         2         3         4         5         6    
-------------------------------------------------------------------------------
       x     0.00000   0.00000   0.00000   0.00000   0.00000   0.00000
       y     0.00000   0.00000   0.00000   0.00000   0.00000   0.00000
       z     0.00000   0.00000   0.00000   0.00000   0.00000   0.00000
-------------------------------------------------------------------------------


  Static dielectric constant tensor : 

-------------------------------------------------------------------------------
              x         y         z
-------------------------------------------------------------------------------
       x     1.00000   0.00000   0.00000
       y     0.00000   1.00000   0.00000
       z     0.00000   0.00000   1.00000
--------------------------------------------------------------------------------

  Static refractive indices : 

-------------------------------------------------------------------------------
    1 =    1.00000      2 =    1.00000      3 =    1.00000
-------------------------------------------------------------------------------


  Phonon Calculation : 

  Number of k points for this configuration =        1

--------------------------------------------------------------------------------
  K point      1 =   0.000000  0.000000  0.000000  Weight =    1.000
--------------------------------------------------------------------------------

 Frequencies (cm-1) : 

   -0.00   -0.00    0.00    3.25    5.19    5.46    5.71    6.02    6.41
    6.80    7.32    7.67    7.98    8.15    8.22    8.60    8.87    9.09
    9.23    9.36    9.45    9.67    9.89   10.01   10.19   10.39   10.47
   10.57   10.89   11.22   11.36   11.38   11.57   11.70   11.80   11.90
   11.97   12.10   12.30   12.50   12.68   12.75   12.89   13.05   13.10
   13.18   13.39   13.61   13.63   13.79   13.84   13.93   14.15   14.22
   14.29   14.40   14.57   14.61   14.79   14.85   14.94   15.06   15.14
   15.34   15.40   15.54   15.61   15.89   15.90   16.10   16.23   16.34
   16.44   16.48   16.57   16.82   17.00   17.04   17.08   17.15   17.28
   17.38   17.41   17.59   17.65   17.71   17.81   17.85   17.97   18.10
   18.21   18.27   18.39   18.42   18.60   18.66   18.74   18.93   19.06
   19.13   19.17   19.28   19.31   19.41   19.49   19.57   19.71   19.73
   19.79   19.94   20.00   20.10   20.20   20.22   20.36   20.52   20.58
   20.62   20.65   20.77   20.85   20.95   21.06   21.13   21.20   21.25
   21.32   21.52   21.58   21.64   21.66   21.80   21.87   21.97   22.08
   22.09   22.16   22.23   22.40   22.48   22.58   22.61   22.67   22.72
   22.86   22.90   23.05   23.10   23.15   23.16   23.28   23.38   23.44
   23.55   23.60   23.64   23.64   23.76   23.88   23.99   24.02   24.09
   24.18   24.29   24.33   24.42   24.46   24.58   24.68   24.72   24.78
   24.90   24.98   25.03   25.04   25.08   25.19   25.31   25.38   25.42
   25.49   25.53   25.63   25.70   25.84   25.97   26.00   26.20   26.21
   26.22   26.29   26.31   26.42   26.46   26.54   26.60   26.64   26.70
   26.87   26.91   26.99   27.04   27.12   27.21   27.23   27.35   27.44
   27.51   27.61   27.66   27.76   27.84   27.89   27.95   28.00   28.08
   28.14   28.19   28.20   28.29   28.38   28.46   28.55   28.59   28.63
   28.80   28.89   28.93   28.94   29.02   29.09   29.20   29.21   29.27
   29.37   29.40   29.57   29.66   29.73   29.77   29.90   29.92   29.97
   30.02   30.19   30.28   30.35   30.43   30.45   30.52   30.55   30.63
   30.72   30.81   30.90   30.90   30.99   31.06   31.09   31.16   31.26
   31.32   31.38   31.45   31.55   31.61   31.68   31.78   31.88   31.89
   31.98   32.00   32.10   32.14   32.21   32.27   32.44   32.48   32.51
   32.60   32.65   32.78   32.86   33.00   33.02   33.05   33.07   33.12
   33.27   33.33   33.41   33.47   33.58   33.62   33.67   33.80   33.83
   33.86   33.95   33.95   34.06   34.08   34.20   34.30   34.35   34.44
   34.50   34.58   34.61   34.74   34.76   34.85   34.89   34.97   35.05
   35.08   35.13   35.20   35.23   35.27   35.37   35.49   35.51   35.55
   35.70   35.74   35.84   35.85   35.90   36.00   36.02   36.15   36.17
   36.27   36.36   36.42   36.47   36.51   36.61   36.64   36.74   36.78
   36.92   36.98   37.00   37.08   37.12   37.17   37.25   37.32   37.44
   37.54   37.62   37.70   37.77   37.86   37.98   38.04   38.10   38.18
   38.22   38.30   38.42   38.44   38.52   38.54   38.61   38.69   38.73
   38.77   38.90   38.91   38.98   39.12   39.13   39.24   39.26   39.31
   39.44   39.51   39.68   39.79   39.87   39.90   39.94   40.06   40.08
   40.16   40.19   40.26   40.32   40.38   40.47   40.47   40.62   40.68
   40.80   40.84   40.87   41.09   41.16   41.21   41.24   41.30   41.32
   41.39   41.48   41.56   41.65   41.78   41.80   41.84   41.93   41.97
   42.02   42.08   42.22   42.26   42.35   42.41   42.44   42.52   42.62
   42.71   42.75   42.85   42.90   42.95   42.95   43.05   43.09   43.12
   43.20   43.33   43.39   43.47   43.51   43.67   43.78   43.83   43.92
   43.97   44.04   44.10   44.25   44.27   44.37   44.42   44.49   44.60
   44.73   44.76   44.85   44.89   44.94   45.00   45.04   45.25   45.34
   45.37   45.45   45.48   45.51   45.64   45.66   45.74   45.90   45.93
   45.99   46.08   46.17   46.23   46.28   46.36   46.45   46.58   46.62
   46.66   46.72   46.77   46.94   46.95   47.01   47.10   47.19   47.32
   47.33   47.40   47.48   47.56   47.73   47.75   47.82   47.86   47.99
   48.03   48.10   48.16   48.36   48.37   48.45   48.49   48.53   48.71
   48.84   48.92   48.97   49.01   49.10   49.18   49.19   49.35   49.37
   49.48   49.55   49.67   49.69   49.71   49.83   49.92   50.01   50.06
   50.13   50.26   50.28   50.37   50.42   50.53   50.56   50.73   50.81
   50.87   50.99   51.00   51.06   51.15   51.20   51.36   51.46   51.49
   51.53   51.64   51.73   51.90   51.96   52.00   52.06   52.16   52.27
   52.33   52.46   52.49   52.56   52.66   52.69   52.80   52.85   52.95
   53.00   53.03   53.16   53.27   53.34   53.47   53.51   53.61   53.66
   53.83   53.98   53.99   54.04   54.17   54.33   54.40   54.45   54.53
   54.61   54.72   54.75   54.77   54.97   55.01   55.15   55.16   55.24
   55.42   55.43   55.59   55.66   55.69   55.73   55.74   55.83   55.95
   56.03   56.19   56.24   56.28   56.39   56.45   56.51   56.60   56.74
   56.84   56.92   57.11   57.23   57.29   57.42   57.51   57.66   57.71
   57.77   57.86   57.95   58.01   58.04   58.07   58.18   58.26   58.38
   58.49   58.67   58.70   58.82   58.96   59.07   59.07   59.16   59.19
   59.38   59.48   59.56   59.59   59.66   59.72   59.97   59.98   60.06
   60.12   60.22   60.31   60.45   60.50   60.53   60.70   60.74   60.79
   60.90   61.03   61.13   61.21   61.26   61.29   61.41   61.48   61.56
   61.69   61.75   61.85   62.04   62.07   62.16   62.20   62.37   62.54
   62.58   62.70   62.82   62.87   63.01   63.11   63.21   63.28   63.39
   63.47   63.55   63.63   63.78   63.86   63.95   64.01   64.10   64.21
   64.27   64.37   64.47   64.49   64.65   64.68   64.85   65.06   65.13
   65.27   65.41   65.50   65.59   65.71   65.89   66.04   66.18   66.33
   66.39   66.47   66.57   66.73   66.81   66.96   67.02   67.25   67.40
   67.51   67.74   67.81   67.89   67.97   68.13   68.31   68.43   68.83
   68.93   68.99   69.21   69.28   69.45   69.57   69.82   69.85   70.03
   70.11   70.20   70.39   70.53   70.61   70.88   71.10   71.31   71.68
   71.80   71.97   72.27   72.79   72.86   73.37   73.41   73.68   73.82
   74.03   74.15   74.30   74.64   75.29   75.42   76.21   76.34   76.59
   76.85   76.91   77.44   77.67   78.03   78.30   78.51   79.47   81.23
   82.44   82.85   86.35



  Thermal conductivity: 

  Lorentzian broadening factor =     0.1089 cm-1

--------------------------------------------------------------------------------
 Mode    : Frequency (cm-1)         Thermal conductivity (cm**2/s)              
--------------------------------------------------------------------------------
     4        3.2488                  0.00759622770039
     5        5.1862                  0.00948992786301
     6        5.4569                  0.01097179112523
     7        5.7083                  0.00846297779658
     8        6.0151                  0.00554670436587
     9        6.4081                  0.00613388688419
    10        6.8003                  0.00617396958822
    11        7.3188                  0.00290003555964
    12        7.6710                  0.00497894360489
    13        7.9783                  0.00947866945501
    14        8.1475                  0.01136431581578
    15        8.2191                  0.01072536655945
    16        8.5986                  0.00812707449779
    17        8.8738                  0.00946913651270
    18        9.0923                  0.01673304366669
    19        9.2290                  0.01629894936552
    20        9.3613                  0.01294303699760
    21        9.4507                  0.00783791243200
    22        9.6690                  0.01176568405213
    23        9.8863                  0.01770549939643
    24       10.0113                  0.01678533478529
    25       10.1881                  0.00966095098639
    26       10.3873                  0.01236767466127
    27       10.4680                  0.01583050198708
    28       10.5745                  0.01098579774589
    29       10.8945                  0.00497161234339
    30       11.2211                  0.00888201239040
    31       11.3569                  0.01402160137950
    32       11.3839                  0.00808728810437
    33       11.5723                  0.01026169880279
    34       11.6977                  0.01389943871847
    35       11.7997                  0.02296704943477
    36       11.8976                  0.02104922795858
    37       11.9702                  0.00914719830805
    38       12.1049                  0.00962660676086
    39       12.2953                  0.00730998985624
    40       12.5022                  0.00991560337645
    41       12.6796                  0.01813257006434
    42       12.7482                  0.01831159621801
    43       12.8859                  0.00954568774291
    44       13.0523                  0.01157848946222
    45       13.0979                  0.00986653725445
    46       13.1829                  0.01113193802061
    47       13.3850                  0.00937493630797
    48       13.6068                  0.02910577058080
    49       13.6327                  0.03695903347461
    50       13.7874                  0.01343955488402
    51       13.8422                  0.01131372695772
    52       13.9318                  0.01017194496028
    53       14.1487                  0.01330590974851
    54       14.2196                  0.01950680455165
    55       14.2912                  0.01619337454853
    56       14.4047                  0.01256340845179
    57       14.5736                  0.01411465849835
    58       14.6063                  0.01440490385381
    59       14.7859                  0.01468513383921
    60       14.8498                  0.02084477994130
    61       14.9445                  0.01906802366127
    62       15.0550                  0.01559201379038
    63       15.1376                  0.00994414611378
    64       15.3363                  0.01591485844966
    65       15.3974                  0.02497196844155
    66       15.5421                  0.02085749158145
    67       15.6118                  0.00834132595428
    68       15.8944                  0.01254537686787
    69       15.8990                  0.01257285578502
    70       16.0994                  0.00924479517330
    71       16.2330                  0.00939702517476
    72       16.3434                  0.01311203957372
    73       16.4385                  0.02011916202749
    74       16.4812                  0.01852224789301
    75       16.5685                  0.01828866378141
    76       16.8152                  0.00690632538868
    77       16.9997                  0.02126916885699
    78       17.0352                  0.01947586758065
    79       17.0825                  0.01408437595803
    80       17.1520                  0.01236463708797
    81       17.2791                  0.01360785284262
    82       17.3799                  0.01743177877104
    83       17.4122                  0.01745403885116
    84       17.5865                  0.01462772119844
    85       17.6470                  0.01908261997580
    86       17.7104                  0.00965072440756
    87       17.8077                  0.03127999899826
    88       17.8513                  0.03651036886816
    89       17.9730                  0.01320901734200
    90       18.1029                  0.00990396017268
    91       18.2112                  0.00813008903903
    92       18.2749                  0.01490868731941
    93       18.3894                  0.01820809785789
    94       18.4176                  0.01907888016831
    95       18.5997                  0.00966627987525
    96       18.6645                  0.01240563560005
    97       18.7388                  0.00970282105391
    98       18.9320                  0.00961863853227
    99       19.0626                  0.00959142775256
   100       19.1274                  0.01082322937586
   101       19.1678                  0.01214531628583
   102       19.2801                  0.01879650439818
   103       19.3069                  0.01419757400824
   104       19.4110                  0.01279062863449
   105       19.4869                  0.00873144291561
   106       19.5671                  0.00736632809418
   107       19.7124                  0.01308534237282
   108       19.7309                  0.01351244416602
   109       19.7918                  0.02067658395776
   110       19.9450                  0.01909201560146
   111       19.9973                  0.02062079080744
   112       20.1034                  0.02086565267468
   113       20.1950                  0.01530810066286
   114       20.2212                  0.01646159761876
   115       20.3564                  0.01356362645850
   116       20.5182                  0.01264540138772
   117       20.5831                  0.01310827443722
   118       20.6240                  0.01317990817103
   119       20.6460                  0.01003905685500
   120       20.7672                  0.01671704433217
   121       20.8527                  0.01569497254705
   122       20.9519                  0.01223891470895
   123       21.0598                  0.01753372942869
   124       21.1288                  0.01006750577461
   125       21.1991                  0.01392840609039
   126       21.2469                  0.02335288450049
   127       21.3232                  0.02046307507913
   128       21.5224                  0.01110153071960
   129       21.5785                  0.01470569756314
   130       21.6364                  0.01294183442433
   131       21.6650                  0.01976149746838
   132       21.8046                  0.01654030213753
   133       21.8738                  0.02547116040800
   134       21.9661                  0.02345881509206
   135       22.0764                  0.01602354196784
   136       22.0864                  0.01304647206511
   137       22.1637                  0.01591626332372
   138       22.2259                  0.01666200018492
   139       22.3991                  0.01091574311015
   140       22.4808                  0.01087850825486
   141       22.5815                  0.01495583003525
   142       22.6103                  0.03387440043704
   143       22.6690                  0.03560558531577
   144       22.7172                  0.02206293608681
   145       22.8609                  0.01277734647870
   146       22.9021                  0.01573505425398
   147       23.0461                  0.01138617017129
   148       23.1040                  0.01294414896044
   149       23.1496                  0.01508365253855
   150       23.1569                  0.01561306147990
   151       23.2848                  0.01859770939173
   152       23.3782                  0.02225248911662
   153       23.4443                  0.01868358896506
   154       23.5456                  0.02631704331618
   155       23.5951                  0.02371445159476
   156       23.6370                  0.01962063025626
   157       23.6399                  0.01585557175127
   158       23.7569                  0.01379013882406
   159       23.8837                  0.01272388423235
   160       23.9876                  0.02312122900450
   161       24.0156                  0.02469058604587
   162       24.0858                  0.01294094342305
   163       24.1833                  0.00999315017817
   164       24.2859                  0.01014374264708
   165       24.3309                  0.01733472059297
   166       24.4181                  0.01823724471878
   167       24.4574                  0.02003058869093
   168       24.5849                  0.01365971034507
   169       24.6815                  0.01116280126907
   170       24.7213                  0.01479746311297
   171       24.7832                  0.01457680448449
   172       24.9036                  0.01524005266492
   173       24.9811                  0.01474906779404
   174       25.0322                  0.01443153083155
   175       25.0444                  0.01511465176139
   176       25.0766                  0.02000808520300
   177       25.1894                  0.01815287284594
   178       25.3102                  0.01732545310269
   179       25.3846                  0.01533363035484
   180       25.4218                  0.01606915001759
   181       25.4905                  0.01831538055905
   182       25.5279                  0.01031967079051
   183       25.6338                  0.01201065011531
   184       25.6996                  0.01099398232890
   185       25.8366                  0.01044047458923
   186       25.9713                  0.01394050735672
   187       26.0011                  0.01497174871781
   188       26.1977                  0.01647690345576
   189       26.2078                  0.01881829773370
   190       26.2240                  0.00999061956469
   191       26.2857                  0.01637911214891
   192       26.3066                  0.01526060106909
   193       26.4219                  0.01310742039581
   194       26.4617                  0.01855130238269
   195       26.5380                  0.02670968743662
   196       26.5985                  0.01564114784978
   197       26.6392                  0.02436732515811
   198       26.7028                  0.00897767117254
   199       26.8655                  0.00922708365587
   200       26.9108                  0.00965703023811
   201       26.9899                  0.00771177809969
   202       27.0398                  0.01583069912769
   203       27.1191                  0.01250826681879
   204       27.2053                  0.01732634581981
   205       27.2303                  0.01680045139716
   206       27.3496                  0.01007844934604
   207       27.4361                  0.01573243371403
   208       27.5076                  0.01220410832513
   209       27.6103                  0.00872341689357
   210       27.6570                  0.01213292802015
   211       27.7578                  0.01353727694879
   212       27.8350                  0.01110881643321
   213       27.8885                  0.01647560873814
   214       27.9485                  0.02065753903878
   215       27.9985                  0.02543733616807
   216       28.0821                  0.01830694020447
   217       28.1414                  0.01320349387231
   218       28.1934                  0.01698330132531
   219       28.2043                  0.01894655412508
   220       28.2862                  0.02101465316972
   221       28.3826                  0.01650257282797
   222       28.4645                  0.01266419720766
   223       28.5526                  0.01654123883062
   224       28.5888                  0.02206174241879
   225       28.6332                  0.02013879479847
   226       28.7980                  0.00899740663824
   227       28.8898                  0.01580774991222
   228       28.9274                  0.01391793193932
   229       28.9403                  0.01173436385926
   230       29.0166                  0.01700556026840
   231       29.0895                  0.01339425547067
   232       29.1962                  0.01822926429541
   233       29.2123                  0.01538232841085
   234       29.2717                  0.01191504667784
   235       29.3733                  0.01099762877812
   236       29.4032                  0.01139410695653
   237       29.5685                  0.00941135693702
   238       29.6582                  0.00895910949012
   239       29.7289                  0.01351075299864
   240       29.7695                  0.01425974918872
   241       29.8955                  0.01329941692665
   242       29.9228                  0.01117815311184
   243       29.9706                  0.01476586823910
   244       30.0227                  0.01082982706374
   245       30.1892                  0.01045284207963
   246       30.2759                  0.01864938165355
   247       30.3495                  0.02064828876548
   248       30.4271                  0.01867256444929
   249       30.4496                  0.01832033697678
   250       30.5198                  0.01425185076517
   251       30.5456                  0.01153626249681
   252       30.6334                  0.01082801112485
   253       30.7227                  0.01473862251290
   254       30.8145                  0.02042671168099
   255       30.8959                  0.04090639990519
   256       30.9017                  0.02368227093571
   257       30.9928                  0.01784690950579
   258       31.0650                  0.01249495084432
   259       31.0914                  0.01583356119752
   260       31.1594                  0.02375731885820
   261       31.2568                  0.01593474508349
   262       31.3163                  0.01338483288117
   263       31.3768                  0.01801039751805
   264       31.4503                  0.01741896224183
   265       31.5510                  0.00969134146600
   266       31.6089                  0.01803024728564
   267       31.6755                  0.01762524744966
   268       31.7802                  0.02124445325992
   269       31.8783                  0.03316618370887
   270       31.8945                  0.03260462329887
   271       31.9774                  0.02177518874785
   272       31.9952                  0.02137745551122
   273       32.0959                  0.01414947079323
   274       32.1445                  0.01059062405657
   275       32.2134                  0.01315989154550
   276       32.2656                  0.01450612402761
   277       32.4377                  0.01023809973168
   278       32.4766                  0.01003311282473
   279       32.5086                  0.01394487719062
   280       32.6045                  0.01527514483851
   281       32.6536                  0.01401334783813
   282       32.7780                  0.00907019001750
   283       32.8627                  0.01565976384542
   284       33.0047                  0.01882511139528
   285       33.0164                  0.02431847965334
   286       33.0491                  0.02151878633114
   287       33.0667                  0.02347074979713
   288       33.1232                  0.02010903233504
   289       33.2723                  0.00960329869349
   290       33.3317                  0.01284376596898
   291       33.4054                  0.01241308318770
   292       33.4711                  0.01448206037636
   293       33.5755                  0.01668083274694
   294       33.6159                  0.01639633599340
   295       33.6668                  0.01328407704087
   296       33.8014                  0.01685237081302
   297       33.8258                  0.01720641271434
   298       33.8623                  0.01933280279647
   299       33.9457                  0.01535858757136
   300       33.9497                  0.02150638976394
   301       34.0567                  0.01345297547817
   302       34.0816                  0.01584431135997
   303       34.2042                  0.01279686682674
   304       34.2978                  0.01837106236377
   305       34.3492                  0.01653081348956
   306       34.4352                  0.01173303718997
   307       34.5015                  0.01609606209939
   308       34.5805                  0.00993798535501
   309       34.6114                  0.01209723545073
   310       34.7365                  0.01583048929090
   311       34.7607                  0.01332763460923
   312       34.8497                  0.01416180279637
   313       34.8864                  0.01039497972260
   314       34.9719                  0.01763995819962
   315       35.0473                  0.01920298437871
   316       35.0825                  0.01987877026298
   317       35.1323                  0.01936002781012
   318       35.1951                  0.02551957644887
   319       35.2321                  0.02128188901286
   320       35.2722                  0.01379036648754
   321       35.3743                  0.01055403643573
   322       35.4919                  0.01241523391825
   323       35.5083                  0.01108944340629
   324       35.5454                  0.01177367658238
   325       35.7032                  0.01407204016971
   326       35.7410                  0.01430070978931
   327       35.8388                  0.01308898017215
   328       35.8547                  0.01059981816868
   329       35.9014                  0.01243429212126
   330       35.9983                  0.01053622130465
   331       36.0235                  0.00807361879454
   332       36.1487                  0.01240883194854
   333       36.1703                  0.01089079905169
   334       36.2732                  0.01231594611098
   335       36.3551                  0.01937801499304
   336       36.4212                  0.01595980663872
   337       36.4657                  0.02076976794981
   338       36.5098                  0.01355214003102
   339       36.6135                  0.01499886439480
   340       36.6387                  0.01748268050771
   341       36.7363                  0.01232445667010
   342       36.7785                  0.00938994884960
   343       36.9195                  0.03162369677194
   344       36.9794                  0.02641725477142
   345       36.9994                  0.02380420073798
   346       37.0792                  0.01126239563089
   347       37.1229                  0.01285214541315
   348       37.1727                  0.01089886562622
   349       37.2460                  0.01122729197028
   350       37.3160                  0.00997720892404
   351       37.4434                  0.00963873444282
   352       37.5416                  0.01069646133722
   353       37.6196                  0.01317586547496
   354       37.6978                  0.00804987070349
   355       37.7698                  0.01273150882367
   356       37.8622                  0.01142723472574
   357       37.9751                  0.01873150585535
   358       38.0409                  0.01170102313232
   359       38.1018                  0.02074693630118
   360       38.1810                  0.01389763949805
   361       38.2225                  0.01898196925765
   362       38.2986                  0.01531640732770
   363       38.4208                  0.01204876812692
   364       38.4370                  0.01640334075448
   365       38.5204                  0.01409179199820
   366       38.5381                  0.01450862436157
   367       38.6125                  0.01428944553693
   368       38.6856                  0.01277585678777
   369       38.7279                  0.01480034645079
   370       38.7695                  0.01290044645809
   371       38.9003                  0.01514683101282
   372       38.9111                  0.02135587065253
   373       38.9817                  0.01807040257943
   374       39.1245                  0.01578557553472
   375       39.1298                  0.01131744938422
   376       39.2433                  0.01623181665807
   377       39.2621                  0.01778992323255
   378       39.3149                  0.02185607022043
   379       39.4395                  0.00972256148748
   380       39.5074                  0.00881839781534
   381       39.6755                  0.00956119085826
   382       39.7945                  0.00888677452068
   383       39.8708                  0.01078782802299
   384       39.8955                  0.01319431162352
   385       39.9389                  0.01455117529157
   386       40.0576                  0.01305614062386
   387       40.0817                  0.01282051135935
   388       40.1610                  0.01803302671920
   389       40.1927                  0.01579177088553
   390       40.2620                  0.01171240096457
   391       40.3201                  0.01666810370764
   392       40.3792                  0.01474887183869
   393       40.4676                  0.01296106868037
   394       40.4716                  0.01872755007665
   395       40.6225                  0.02065425089315
   396       40.6823                  0.01571098606343
   397       40.7991                  0.01846115488456
   398       40.8397                  0.01356816284160
   399       40.8741                  0.01342325613691
   400       41.0891                  0.00990537125125
   401       41.1617                  0.01745935775704
   402       41.2118                  0.02202124374689
   403       41.2393                  0.01910550266468
   404       41.2962                  0.01706463208256
   405       41.3202                  0.02180000147731
   406       41.3948                  0.01638813939434
   407       41.4769                  0.00975888438870
   408       41.5587                  0.01422781652701
   409       41.6457                  0.01209556440272
   410       41.7818                  0.01707268043326
   411       41.7951                  0.01589201650013
   412       41.8410                  0.01268290354825
   413       41.9348                  0.01351870077352
   414       41.9669                  0.01592904274535
   415       42.0221                  0.01778670301997
   416       42.0820                  0.01668223571093
   417       42.2245                  0.02032572567029
   418       42.2554                  0.01864764974739
   419       42.3472                  0.01150789038470
   420       42.4055                  0.01253676870525
   421       42.4368                  0.00958384348851
   422       42.5196                  0.01319478409373
   423       42.6156                  0.01353127330877
   424       42.7140                  0.01532174703091
   425       42.7546                  0.01235963554051
   426       42.8507                  0.02929926681857
   427       42.9001                  0.01917449215525
   428       42.9508                  0.03193840158576
   429       42.9546                  0.01366390976068
   430       43.0544                  0.01768338765640
   431       43.0930                  0.01822848863134
   432       43.1197                  0.01117686058219
   433       43.1964                  0.01110826673420
   434       43.3316                  0.01302933491069
   435       43.3853                  0.01242237773494
   436       43.4665                  0.01131992481050
   437       43.5142                  0.01031964524980
   438       43.6695                  0.01238538232221
   439       43.7761                  0.01456022266228
   440       43.8322                  0.01304127835540
   441       43.9238                  0.01484499334185
   442       43.9743                  0.01459669595947
   443       44.0367                  0.01837198411654
   444       44.1035                  0.01047350674818
   445       44.2488                  0.01298725336707
   446       44.2737                  0.01207123613737
   447       44.3681                  0.01428064665061
   448       44.4200                  0.01539859475727
   449       44.4857                  0.00888508124018
   450       44.5966                  0.01350342999061
   451       44.7314                  0.00954948150434
   452       44.7645                  0.01395308766224
   453       44.8508                  0.01408397037142
   454       44.8909                  0.01922403912923
   455       44.9423                  0.01847906400333
   456       45.0018                  0.02177287557615
   457       45.0420                  0.01543939598496
   458       45.2462                  0.01233882996276
   459       45.3352                  0.01884993164608
   460       45.3652                  0.01615592742829
   461       45.4458                  0.01504374693273
   462       45.4823                  0.01735201599628
   463       45.5126                  0.01908306343833
   464       45.6411                  0.01197220819038
   465       45.6551                  0.01602056982315
   466       45.7436                  0.01588578352897
   467       45.8951                  0.01045613964826
   468       45.9258                  0.01584507823047
   469       45.9862                  0.01461392826872
   470       46.0811                  0.01181716354167
   471       46.1711                  0.01497511257235
   472       46.2261                  0.01210844807860
   473       46.2774                  0.01556890912618
   474       46.3631                  0.01493883639900
   475       46.4465                  0.01216916906402
   476       46.5795                  0.01035290722477
   477       46.6214                  0.00977864558702
   478       46.6608                  0.01650265129157
   479       46.7184                  0.01340497564459
   480       46.7704                  0.01535581572650
   481       46.9390                  0.01375313971367
   482       46.9478                  0.01813509620910
   483       47.0096                  0.01417665608964
   484       47.0996                  0.01310806641946
   485       47.1867                  0.01068482440531
   486       47.3166                  0.01710864467529
   487       47.3265                  0.01440457082321
   488       47.3983                  0.01125507450812
   489       47.4807                  0.01066322730853
   490       47.5640                  0.00826148895665
   491       47.7314                  0.01145913626388
   492       47.7486                  0.01181090223567
   493       47.8165                  0.00990865968996
   494       47.8614                  0.01167027829239
   495       47.9922                  0.01503681657230
   496       48.0280                  0.01292770400084
   497       48.0956                  0.01094828276598
   498       48.1597                  0.00697924449531
   499       48.3603                  0.01273998340347
   500       48.3658                  0.01320845487771
   501       48.4517                  0.01480615268237
   502       48.4857                  0.01398878004192
   503       48.5297                  0.00753484436991
   504       48.7078                  0.00927377740786
   505       48.8396                  0.01320455264245
   506       48.9191                  0.00904659766572
   507       48.9746                  0.00722754061762
   508       49.0108                  0.01290313746396
   509       49.1004                  0.01520096918571
   510       49.1807                  0.01346727067549
   511       49.1927                  0.00996775375132
   512       49.3466                  0.01026252538788
   513       49.3715                  0.01015036513570
   514       49.4776                  0.00694826506293
   515       49.5503                  0.01137890161976
   516       49.6663                  0.00968683280446
   517       49.6948                  0.01028575624249
   518       49.7138                  0.01124265742084
   519       49.8267                  0.00933082489078
   520       49.9241                  0.00751632602707
   521       50.0115                  0.00992086529559
   522       50.0630                  0.00772307303175
   523       50.1321                  0.01084618460303
   524       50.2603                  0.00825980077182
   525       50.2803                  0.01036103450314
   526       50.3742                  0.01966470930203
   527       50.4207                  0.01231964130338
   528       50.5272                  0.01397176833957
   529       50.5623                  0.00732266940576
   530       50.7255                  0.00799818810796
   531       50.8132                  0.01287474084302
   532       50.8736                  0.00844280991549
   533       50.9851                  0.01428426742089
   534       50.9964                  0.01714584298710
   535       51.0609                  0.02100533122736
   536       51.1500                  0.01886936090995
   537       51.1976                  0.01731443170564
   538       51.3551                  0.01014284390385
   539       51.4649                  0.00928588838525
   540       51.4911                  0.01145782389122
   541       51.5276                  0.01214054812880
   542       51.6389                  0.01100096690589
   543       51.7280                  0.00551808036100
   544       51.8972                  0.01131167457983
   545       51.9572                  0.01585633929354
   546       51.9962                  0.01048183682484
   547       52.0584                  0.01679429435905
   548       52.1606                  0.00804543035314
   549       52.2727                  0.00637684598152
   550       52.3260                  0.00645866436592
   551       52.4550                  0.00910145701815
   552       52.4890                  0.00841194676879
   553       52.5629                  0.01201126793686
   554       52.6552                  0.01297341417403
   555       52.6912                  0.01539118432904
   556       52.7964                  0.01167259501440
   557       52.8503                  0.00854592857656
   558       52.9548                  0.01454678284151
   559       53.0031                  0.01277231348311
   560       53.0268                  0.01464429802750
   561       53.1603                  0.00952699134837
   562       53.2720                  0.00740299179158
   563       53.3444                  0.00870462844085
   564       53.4662                  0.00937071782751
   565       53.5118                  0.00850446248430
   566       53.6110                  0.00765144021685
   567       53.6634                  0.00577798116011
   568       53.8292                  0.00796277526630
   569       53.9819                  0.01921654918681
   570       53.9885                  0.01509577928615
   571       54.0359                  0.01278445902043
   572       54.1658                  0.00736028465711
   573       54.3284                  0.00834112384139
   574       54.3986                  0.01178367598939
   575       54.4535                  0.00729355731637
   576       54.5270                  0.01239010041383
   577       54.6050                  0.01568686395510
   578       54.7211                  0.01584828865748
   579       54.7480                  0.00976914543102
   580       54.7655                  0.01497907025738
   581       54.9694                  0.02033952882257
   582       55.0055                  0.01970745220680
   583       55.1509                  0.00537650941524
   584       55.1646                  0.00782004983285
   585       55.2438                  0.00684402747535
   586       55.4195                  0.00955099972532
   587       55.4273                  0.00686241286836
   588       55.5911                  0.01343054277362
   589       55.6573                  0.01204320812629
   590       55.6913                  0.01801509015475
   591       55.7328                  0.01729413729558
   592       55.7392                  0.01942574443419
   593       55.8299                  0.01062824921075
   594       55.9525                  0.00917189413144
   595       56.0339                  0.00526885362985
   596       56.1947                  0.00872737608885
   597       56.2357                  0.00616163646794
   598       56.2755                  0.00842098464835
   599       56.3863                  0.00967761142886
   600       56.4467                  0.00813845435886
   601       56.5115                  0.00745176886328
   602       56.6033                  0.00629493397570
   603       56.7367                  0.00727224567875
   604       56.8419                  0.01047658764899
   605       56.9169                  0.00680610018278
   606       57.1073                  0.01013517506619
   607       57.2286                  0.01182587671376
   608       57.2947                  0.00671213038304
   609       57.4178                  0.00640662846372
   610       57.5105                  0.00642608535754
   611       57.6561                  0.00578832592027
   612       57.7097                  0.00875983460440
   613       57.7734                  0.01182270241666
   614       57.8592                  0.00865207244004
   615       57.9530                  0.01348848908242
   616       58.0132                  0.01455718787968
   617       58.0405                  0.01547498575505
   618       58.0719                  0.01641101588865
   619       58.1805                  0.01566842195690
   620       58.2638                  0.00949608905505
   621       58.3820                  0.00924555612467
   622       58.4887                  0.00706307451829
   623       58.6737                  0.00677146603524
   624       58.7041                  0.00996683256972
   625       58.8170                  0.00411357739236
   626       58.9637                  0.00824288544629
   627       59.0654                  0.00756332961424
   628       59.0707                  0.00920543927002
   629       59.1556                  0.00880725102444
   630       59.1932                  0.00971237403761
   631       59.3764                  0.00855757079255
   632       59.4833                  0.01015122600126
   633       59.5558                  0.01252515499512
   634       59.5933                  0.01119517109017
   635       59.6562                  0.00924631012475
   636       59.7231                  0.01152054547542
   637       59.9682                  0.01062583794812
   638       59.9777                  0.01120071596496
   639       60.0591                  0.01402110952783
   640       60.1227                  0.01193744312386
   641       60.2230                  0.01054270225435
   642       60.3120                  0.00645947112931
   643       60.4487                  0.00558880130537
   644       60.5023                  0.00864730922135
   645       60.5275                  0.00701759033229
   646       60.6970                  0.01032859242526
   647       60.7403                  0.00727223912293
   648       60.7945                  0.00703347312097
   649       60.8984                  0.00692719654984
   650       61.0254                  0.00759246110058
   651       61.1344                  0.00868285963023
   652       61.2125                  0.00976270340902
   653       61.2639                  0.01400483588394
   654       61.2900                  0.01271456175563
   655       61.4149                  0.00927227660582
   656       61.4826                  0.01055658465239
   657       61.5623                  0.00774941587960
   658       61.6866                  0.00496658275484
   659       61.7476                  0.00723729417237
   660       61.8472                  0.00682334879262
   661       62.0353                  0.00669757443788
   662       62.0729                  0.01028244100994
   663       62.1565                  0.01060165667664
   664       62.1990                  0.00684993198490
   665       62.3681                  0.00386135403885
   666       62.5405                  0.00611099221962
   667       62.5759                  0.00497507138274
   668       62.6969                  0.00593197544465
   669       62.8182                  0.00440241885735
   670       62.8695                  0.00476133208930
   671       63.0114                  0.00919049304885
   672       63.1062                  0.01276231600442
   673       63.2087                  0.00499612854026
   674       63.2770                  0.00470431413749
   675       63.3926                  0.00493968801431
   676       63.4673                  0.00621089166229
   677       63.5509                  0.00327479830815
   678       63.6328                  0.00453685947874
   679       63.7789                  0.00442001859995
   680       63.8633                  0.00503253958011
   681       63.9540                  0.00752434613434
   682       64.0107                  0.00934281229116
   683       64.1045                  0.00621296237552
   684       64.2124                  0.01339788938593
   685       64.2665                  0.01008633628356
   686       64.3734                  0.00556575098881
   687       64.4695                  0.00577817371876
   688       64.4859                  0.00686640094141
   689       64.6549                  0.00748270324589
   690       64.6822                  0.00752096757914
   691       64.8490                  0.00219328733802
   692       65.0638                  0.00218701920276
   693       65.1329                  0.00310517135311
   694       65.2662                  0.00444433061834
   695       65.4101                  0.00472347685861
   696       65.4987                  0.00480713431202
   697       65.5898                  0.00351475788512
   698       65.7096                  0.00364497164695
   699       65.8943                  0.00293438264396
   700       66.0443                  0.00264111962270
   701       66.1847                  0.00247340354439
   702       66.3292                  0.00340236072363
   703       66.3921                  0.00712829108113
   704       66.4705                  0.00681709367944
   705       66.5736                  0.00427675174989
   706       66.7284                  0.00408219959377
   707       66.8066                  0.00571999120545
   708       66.9576                  0.00551142012689
   709       67.0153                  0.00606985891466
   710       67.2512                  0.00323617218851
   711       67.4019                  0.00252911427797
   712       67.5116                  0.00275893928756
   713       67.7367                  0.00354692081450
   714       67.8079                  0.00454344011229
   715       67.8937                  0.00580231653065
   716       67.9674                  0.00521229859566
   717       68.1264                  0.00278161830330
   718       68.3097                  0.00323215057263
   719       68.4276                  0.00195328037396
   720       68.8271                  0.00295914994815
   721       68.9283                  0.00328870750350
   722       68.9850                  0.00280780982857
   723       69.2094                  0.00426371492978
   724       69.2802                  0.00451526124652
   725       69.4547                  0.00282158380445
   726       69.5707                  0.00226509683043
   727       69.8195                  0.00289469672789
   728       69.8483                  0.00256360318641
   729       70.0331                  0.00285971027888
   730       70.1110                  0.00295828322364
   731       70.2036                  0.00292952978437
   732       70.3872                  0.00182373996162
   733       70.5281                  0.00331671843267
   734       70.6101                  0.00267597127018
   735       70.8812                  0.00088076818275
   736       71.0965                  0.00077387095075
   737       71.3070                  0.00117463339403
   738       71.6836                  0.00240128801652
   739       71.8018                  0.00248551885143
   740       71.9721                  0.00130237716364
   741       72.2651                  0.00105632774456
   742       72.7941                  0.00132155692829
   743       72.8602                  0.00134657076449
   744       73.3670                  0.00341540861933
   745       73.4067                  0.00319181454426
   746       73.6823                  0.00125655906503
   747       73.8168                  0.00091027503033
   748       74.0319                  0.00178130566214
   749       74.1519                  0.00253499127716
   750       74.3035                  0.00157430208923
   751       74.6422                  0.00078395029224
   752       75.2851                  0.00039863125708
   753       75.4212                  0.00080039262239
   754       76.2103                  0.00212204796184
   755       76.3446                  0.00176560955330
   756       76.5906                  0.00062302280705
   757       76.8502                  0.00305371220239
   758       76.9126                  0.00291080603389
   759       77.4417                  0.00089616997606
   760       77.6652                  0.00039769950455
   761       78.0298                  0.00052813144268
   762       78.3023                  0.00040129391722
   763       78.5114                  0.00031462237532
   764       79.4656                  0.00015110582474
   765       81.2291                  0.00024297296317
   766       82.4449                  0.00012831337311
   767       82.8510                  0.00021919296927
   768       86.3543                  0.00007405154599
--------------------------------------------------------------------------------

--------------------------------------------------------------------------------
  Phonon properties (per mole of unit cells): Temperature =      0.000 K
--------------------------------------------------------------------------------
  Zero point energy            =        1.930227 eV
--------------------------------------------------------------------------------

  Phonon density of states : 

--------------------------------------------------------------------------------
 Frequency (cm-1) Density of States                                             
--------------------------------------------------------------------------------
    0.00000 |**                                                            0.001
    1.34929 |                                                              0.000
    2.69857 |**                                                            0.001
    4.04786 |**                                                            0.001
    5.39715 |***********                                                   0.005
    6.74644 |***********                                                   0.005
    8.09572 |********************                                          0.009
    9.44501 |**********************                                        0.010
   10.79430 |****************************                                  0.013
   12.14358 |*************************                                     0.012
   13.49287 |**********************************                            0.016
   14.84216 |*******************************                               0.014
   16.19145 |*************************************                         0.017
   17.54073 |****************************************                      0.018
   18.89002 |************************************************              0.022
   20.23931 |******************************************                    0.020
   21.58859 |************************************************              0.022
   22.93788 |***************************************************           0.023
   24.28717 |******************************************************        0.025
   25.63646 |************************************************              0.022
   26.98574 |*********************************************************     0.026
   28.33503 |***************************************************           0.023
   29.68432 |******************************************************        0.025
   31.03361 |******************************************************        0.025
   32.38289 |******************************************************        0.025
   33.73218 |*********************************************************     0.026
   35.08147 |************************************************************  0.027
   36.43075 |******************************************************        0.025
   37.78004 |******************************************************        0.025
   39.12933 |*********************************************************     0.026
   40.47862 |************************************************              0.022
   41.82790 |************************************************************  0.027
   43.17719 |************************************************              0.022
   44.52648 |************************************************              0.022
   45.87576 |******************************************************        0.025
   47.22505 |***************************************************           0.023
   48.57434 |*********************************************                 0.021
   49.92363 |***************************************************           0.023
   51.27291 |*********************************************                 0.021
   52.62220 |******************************************                    0.020
   53.97149 |************************************************              0.022
   55.32077 |************************************************              0.022
   56.67006 |****************************************                      0.018
   58.01935 |****************************************                      0.018
   59.36864 |*********************************************                 0.021
   60.71792 |******************************************                    0.020
   62.06721 |****************************************                      0.018
   63.41650 |******************************************                    0.020
   64.76578 |****************************                                  0.013
   66.11507 |*******************************                               0.014
   67.46436 |**********************                                        0.010
   68.81365 |*******************************                               0.014
   70.16293 |********************                                          0.009
   71.51222 |*****************                                             0.008
   72.86151 |*****************                                             0.008
   74.21079 |***********                                                   0.005
   75.56008 |***********                                                   0.005
   76.90937 |***********                                                   0.005
   78.25866 |********                                                      0.004
   79.60794 |                                                              0.000
   80.95723 |**                                                            0.001
   82.30652 |*****                                                         0.003
   83.65581 |                                                              0.000
   85.00509 |**                                                            0.001
--------------------------------------------------------------------------------



  XYZ File written as gulp.xyz                                


  Time to end of properties =      41.8986 seconds


  Peak dynamic memory used =      10.73 MB 


  Timing analysis for GULP :

--------------------------------------------------------------------------------
  Task / Subroutine                                          Time (Seconds)
--------------------------------------------------------------------------------
  Calculation of real space energy and derivatives                0.0960
  Calculation of phonons                                         40.2105
  Calculation of scattering                                       0.0000
--------------------------------------------------------------------------------
  Total CPU time                                                 41.8986
--------------------------------------------------------------------------------


  Job Finished at 19:27.57 27th April      2013                               

