********************************************************************************
*                       GENERAL UTILITY LATTICE PROGRAM                        *
*                                 Julian Gale                                  *
*                      Nanochemistry Research Institute                        *
*                           Department of Chemistry                            *
*                    Curtin University, Western Australia                      *
********************************************************************************
* Version = 4.0.7 * Last modified =  14th December 2012                        *
********************************************************************************
*  single       - perform a single point run                                   *
*  phonon       - calculate phonons for final geometry                         *
*  thermal      - calculate thermal conductivity for final geometry            *
********************************************************************************

  Job Started  at 16:02.17 24th February   2013                               

  Number of CPUs =     1


  Total number of configurations input =   1

********************************************************************************
*  Input for Configuration =   1                                               *
********************************************************************************

  Formula = Ar256                                                       

  Number of irreducible atoms/shells =     256


  Total number atoms/shells =     256

  Dimensionality = 3               :  Bulk   



  Cartesian lattice vectors (Angstroms) :

       21.483900    0.000000    0.000000
        0.000000   21.483900    0.000000
        0.000000    0.000000   21.483900

  Cell parameters (Angstroms/Degrees):

  a =      21.4839    alpha =  90.0000
  b =      21.4839    beta  =  90.0000
  c =      21.4839    gamma =  90.0000

  Initial cell volume =        9916.065040 Angs**3

  Temperature of configuration =  0.000     K 

  Pressure of configuration =         0.000 GPa 

  Fractional coordinates of asymmetric unit :

--------------------------------------------------------------------------------
   No.  Atomic       x           y          z         Charge      Occupancy
        Label      (Frac)      (Frac)     (Frac)        (e)         (Frac)  
--------------------------------------------------------------------------------
      1 Ar    c    0.498420    0.342613    0.995727     0.00000    1.000000    
      2 Ar    c    0.819032    0.630435    0.617365     0.00000    1.000000    
      3 Ar    c    0.643919    0.102986    0.041318     0.00000    1.000000    
      4 Ar    c    0.978398    0.073293    0.727684     0.00000    1.000000    
      5 Ar    c    0.700227    0.132449    0.200386     0.00000    1.000000    
      6 Ar    c    0.790117    0.538170    0.479568     0.00000    1.000000    
      7 Ar    c    0.676665    0.535955    0.356698     0.00000    1.000000    
      8 Ar    c    0.646405    0.849832    0.942096     0.00000    1.000000    
      9 Ar    c    0.107862    0.300388    0.268103     0.00000    1.000000    
     10 Ar    c    0.187631    0.550328    0.853076     0.00000    1.000000    
     11 Ar    c    0.851493    0.398066    0.170143     0.00000    1.000000    
     12 Ar    c    0.473396    0.074905    0.516666     0.00000    1.000000    
     13 Ar    c    0.968902    0.547936    0.309236     0.00000    1.000000    
     14 Ar    c    0.589004    0.957415    0.478824     0.00000    1.000000    
     15 Ar    c    0.939545    0.860672    0.110589     0.00000    1.000000    
     16 Ar    c    0.479173    0.407309    0.834620     0.00000    1.000000    
     17 Ar    c    0.866654    0.944405    0.364848     0.00000    1.000000    
     18 Ar    c    0.458981    0.088899    0.343327     0.00000    1.000000    
     19 Ar    c    0.807498    0.490377    0.886734     0.00000    1.000000    
     20 Ar    c    0.350193    0.427091    0.967385     0.00000    1.000000    
     21 Ar    c    0.237545    0.126725    0.926666     0.00000    1.000000    
     22 Ar    c    0.280481    0.732800    0.570045     0.00000    1.000000    
     23 Ar    c    0.924432    0.215421    0.872523     0.00000    1.000000    
     24 Ar    c    0.568970    0.077532    0.813684     0.00000    1.000000    
     25 Ar    c    0.686714    0.366573    0.264418     0.00000    1.000000    
     26 Ar    c    0.722890    0.334953    0.697648     0.00000    1.000000    
     27 Ar    c    0.774687    0.739335    0.937218     0.00000    1.000000    
     28 Ar    c    0.939862    0.031460    0.044624     0.00000    1.000000    
     29 Ar    c    0.601474    0.564474    0.060838     0.00000    1.000000    
     30 Ar    c    0.242228    0.320063    0.385470     0.00000    1.000000    
     31 Ar    c    0.126239    0.149847    0.333813     0.00000    1.000000    
     32 Ar    c    0.395487    0.628270    0.651088     0.00000    1.000000    
     33 Ar    c    0.576567    0.652987    0.209138     0.00000    1.000000    
     34 Ar    c    0.942571    0.029297    0.552176     0.00000    1.000000    
     35 Ar    c    0.812846    0.647862    0.792319     0.00000    1.000000    
     36 Ar    c    0.193091    0.817687    0.014319     0.00000    1.000000    
     37 Ar    c    0.354512    0.331788    0.104515     0.00000    1.000000    
     38 Ar    c    0.105055    0.989048    0.297683     0.00000    1.000000    
     39 Ar    c    0.562989    0.490474    0.477385     0.00000    1.000000    
     40 Ar    c    0.390280    0.687110    0.815062     0.00000    1.000000    
     41 Ar    c    0.682106    0.767631    0.636751     0.00000    1.000000    
     42 Ar    c    0.965388    0.377129    0.305644     0.00000    1.000000    
     43 Ar    c    0.258182    0.899585    0.510904     0.00000    1.000000    
     44 Ar    c    0.534344    0.535717    0.635755     0.00000    1.000000    
     45 Ar    c    0.961781    0.933992    0.831376     0.00000    1.000000    
     46 Ar    c    0.252232    0.182899    0.633316     0.00000    1.000000    
     47 Ar    c    0.446795    0.111637    0.051183     0.00000    1.000000    
     48 Ar    c    0.428311    0.460261    0.368806     0.00000    1.000000    
     49 Ar    c    0.418244    0.562053    0.233605     0.00000    1.000000    
     50 Ar    c    0.840159    0.890188    0.527428     0.00000    1.000000    
     51 Ar    c    0.654727    0.624598    0.531700     0.00000    1.000000    
     52 Ar    c    0.505681    0.805547    0.178151     0.00000    1.000000    
     53 Ar    c    0.025033    0.210325    0.470012     0.00000    1.000000    
     54 Ar    c    0.122766    0.072180    0.037809     0.00000    1.000000    
     55 Ar    c    0.267947    0.680207    0.114213     0.00000    1.000000    
     56 Ar    c    0.619455    0.936208    0.106645     0.00000    1.000000    
     57 Ar    c    0.363899    0.220406    0.505872     0.00000    1.000000    
     58 Ar    c    0.928961    0.627256    0.470231     0.00000    1.000000    
     59 Ar    c    0.117632    0.965248    0.764228     0.00000    1.000000    
     60 Ar    c    0.657232    0.747676    0.806627     0.00000    1.000000    
     61 Ar    c    0.450861    0.956367    0.110502     0.00000    1.000000    
     62 Ar    c    0.202760    0.679783    0.423071     0.00000    1.000000    
     63 Ar    c    0.926173    0.191413    0.610876     0.00000    1.000000    
     64 Ar    c    0.523075    0.608930    0.361841     0.00000    1.000000    
     65 Ar    c    0.820093    0.633619    0.335602     0.00000    1.000000    
     66 Ar    c    0.086279    0.367382    0.429321     0.00000    1.000000    
     67 Ar    c    0.910966    0.478084    0.028333     0.00000    1.000000    
     68 Ar    c    0.599812    0.787636    0.492215     0.00000    1.000000    
     69 Ar    c    0.612854    0.391340    0.113324     0.00000    1.000000    
     70 Ar    c    0.774073    0.734015    0.493369     0.00000    1.000000    
     71 Ar    c    0.877634    0.309980    0.016574     0.00000    1.000000    
     72 Ar    c    0.025771    0.237403    0.736519     0.00000    1.000000    
     73 Ar    c    0.869535    0.154522    0.157049     0.00000    1.000000    
     74 Ar    c    0.311009    0.598802    0.968618     0.00000    1.000000    
     75 Ar    c    0.758833    0.841868    0.084146     0.00000    1.000000    
     76 Ar    c    0.629090    0.079294    0.355843     0.00000    1.000000    
     77 Ar    c    0.307970    0.511523    0.116477     0.00000    1.000000    
     78 Ar    c    0.426141    0.806483    0.521460     0.00000    1.000000    
     79 Ar    c    0.822909    0.461528    0.322751     0.00000    1.000000    
     80 Ar    c    0.355969    0.046062    0.213793     0.00000    1.000000    
     81 Ar    c    0.136875    0.465390    0.288123     0.00000    1.000000    
     82 Ar    c    0.492722    0.655966    0.518756     0.00000    1.000000    
     83 Ar    c    0.225439    0.021572    0.632511     0.00000    1.000000    
     84 Ar    c    0.195512    0.186523    0.477972     0.00000    1.000000    
     85 Ar    c    0.420380    0.196510    0.204060     0.00000    1.000000    
     86 Ar    c    0.303982    0.854323    0.824776     0.00000    1.000000    
     87 Ar    c    0.863046    0.897560    0.963382     0.00000    1.000000    
     88 Ar    c    0.044296    0.729774    0.406486     0.00000    1.000000    
     89 Ar    c    0.540484    0.364041    0.680384     0.00000    1.000000    
     90 Ar    c    0.037344    0.073664    0.891007     0.00000    1.000000    
     91 Ar    c    0.564395    0.037349    0.652624     0.00000    1.000000    
     92 Ar    c    0.985664    0.059130    0.388745     0.00000    1.000000    
     93 Ar    c    0.541764    0.989588    0.956735     0.00000    1.000000    
     94 Ar    c    0.723002    0.389457    0.436365     0.00000    1.000000    
     95 Ar    c    0.919670    0.771936    0.840872     0.00000    1.000000    
     96 Ar    c    0.828653    0.402783    0.572801     0.00000    1.000000    
     97 Ar    c    0.753611    0.423768    0.033878     0.00000    1.000000    
     98 Ar    c    0.124281    0.798398    0.543030     0.00000    1.000000    
     99 Ar    c    0.674133    0.597042    0.886436     0.00000    1.000000    
    100 Ar    c    0.664777    0.704407    0.356998     0.00000    1.000000    
    101 Ar    c    0.150524    0.557985    0.142630     0.00000    1.000000    
    102 Ar    c    0.269624    0.980078    0.352520     0.00000    1.000000    
    103 Ar    c    0.224837    0.306071    0.985505     0.00000    1.000000    
    104 Ar    c    0.907563    0.625198    0.935556     0.00000    1.000000    
    105 Ar    c    0.375720    0.243717    0.941905     0.00000    1.000000    
    106 Ar    c    0.950749    0.517122    0.619250     0.00000    1.000000    
    107 Ar    c    0.237118    0.569254    0.562891     0.00000    1.000000    
    108 Ar    c    0.079271    0.948869    0.601190     0.00000    1.000000    
    109 Ar    c    0.616289    0.303302    0.826805     0.00000    1.000000    
    110 Ar    c    0.966133    0.205197    0.311294     0.00000    1.000000    
    111 Ar    c    0.198234    0.959630    0.917818     0.00000    1.000000    
    112 Ar    c    0.915113    0.993400    0.213000     0.00000    1.000000    
    113 Ar    c    0.747597    0.681869    0.189324     0.00000    1.000000    
    114 Ar    c    0.672122    0.610876    0.703918     0.00000    1.000000    
    115 Ar    c    0.007133    0.898477    0.452270     0.00000    1.000000    
    116 Ar    c    0.803066    0.491438    0.716229     0.00000    1.000000    
    117 Ar    c    0.977527    0.286210    0.159429     0.00000    1.000000    
    118 Ar    c    0.380658    0.933280    0.948631     0.00000    1.000000    
    119 Ar    c    0.714805    0.513990    0.183120     0.00000    1.000000    
    120 Ar    c    0.134221    0.228492    0.109538     0.00000    1.000000    
    121 Ar    c    0.091989    0.551278    0.424606     0.00000    1.000000    
    122 Ar    c    0.508767    0.210246    0.610764     0.00000    1.000000    
    123 Ar    c    0.224141    0.453362    0.703820     0.00000    1.000000    
    124 Ar    c    0.539674    0.690084    0.929594     0.00000    1.000000    
    125 Ar    c    0.633223    0.731720    0.067855     0.00000    1.000000    
    126 Ar    c    0.726958    0.035330    0.757041     0.00000    1.000000    
    127 Ar    c    0.124176    0.732069    0.704737     0.00000    1.000000    
    128 Ar    c    0.953123    0.768231    0.554708     0.00000    1.000000    
    129 Ar    c    0.485457    0.823324    0.843944     0.00000    1.000000    
    130 Ar    c    0.670288    0.283029    0.984398     0.00000    1.000000    
    131 Ar    c    0.393952    0.517425    0.521809     0.00000    1.000000    
    132 Ar    c    0.554252    0.934607    0.300959     0.00000    1.000000    
    133 Ar    c    0.251409    0.629076    0.721196     0.00000    1.000000    
    134 Ar    c    0.229965    0.917138    0.201668     0.00000    1.000000    
    135 Ar    c    0.945448    0.462177    0.455419     0.00000    1.000000    
    136 Ar    c    0.258325    0.591108    0.272235     0.00000    1.000000    
    137 Ar    c    0.993260    0.186760    0.024047     0.00000    1.000000    
    138 Ar    c    0.541229    0.188612    0.935636     0.00000    1.000000    
    139 Ar    c    0.073281    0.640168    0.564334     0.00000    1.000000    
    140 Ar    c    0.660141    0.817673    0.230234     0.00000    1.000000    
    141 Ar    c    0.563762    0.360860    0.375483     0.00000    1.000000    
    142 Ar    c    0.705514    0.162942    0.868599     0.00000    1.000000    
    143 Ar    c    0.351982    0.525114    0.821978     0.00000    1.000000    
    144 Ar    c    0.889252    0.781273    0.387004     0.00000    1.000000    
    145 Ar    c    0.496060    0.780147    0.356777     0.00000    1.000000    
    146 Ar    c    0.043405    0.519957    0.939848     0.00000    1.000000    
    147 Ar    c    0.614106    0.913321    0.779658     0.00000    1.000000    
    148 Ar    c    0.077599    0.946793    0.140291     0.00000    1.000000    
    149 Ar    c    0.780403    0.010631    0.097161     0.00000    1.000000    
    150 Ar    c    0.618123    0.444246    0.938391     0.00000    1.000000    
    151 Ar    c    0.578242    0.223413    0.277822     0.00000    1.000000    
    152 Ar    c    0.421995    0.941682    0.424464     0.00000    1.000000    
    153 Ar    c    0.136881    0.297525    0.586393     0.00000    1.000000    
    154 Ar    c    0.094979    0.563571    0.711496     0.00000    1.000000    
    155 Ar    c    0.943739    0.705370    0.233747     0.00000    1.000000    
    156 Ar    c    0.107668    0.463918    0.569082     0.00000    1.000000    
    157 Ar    c    0.257233    0.491121    0.411756     0.00000    1.000000    
    158 Ar    c    0.262168    0.253925    0.225946     0.00000    1.000000    
    159 Ar    c    0.134624    0.393667    0.865685     0.00000    1.000000    
    160 Ar    c    0.355305    0.760258    0.961925     0.00000    1.000000    
    161 Ar    c    0.342565    0.830492    0.111607     0.00000    1.000000    
    162 Ar    c    0.446699    0.963317    0.764479     0.00000    1.000000    
    163 Ar    c    0.891374    0.342993    0.723207     0.00000    1.000000    
    164 Ar    c    0.471991    0.539488    0.949958     0.00000    1.000000    
    165 Ar    c    0.185762    0.386243    0.142065     0.00000    1.000000    
    166 Ar    c    0.223191    0.714284    0.863568     0.00000    1.000000    
    167 Ar    c    0.017315    0.455513    0.161991     0.00000    1.000000    
    168 Ar    c    0.098596    0.232402    0.896676     0.00000    1.000000    
    169 Ar    c    0.538934    0.871955    0.631450     0.00000    1.000000    
    170 Ar    c    0.766444    0.592029    0.032696     0.00000    1.000000    
    171 Ar    c    0.650994    0.182092    0.698756     0.00000    1.000000    
    172 Ar    c    0.280987    0.002434    0.063624     0.00000    1.000000    
    173 Ar    c    0.097884    0.824459    0.850558     0.00000    1.000000    
    174 Ar    c    0.818762    0.187567    0.742295     0.00000    1.000000    
    175 Ar    c    0.717351    0.000000    0.929813     0.00000    1.000000    
    176 Ar    c    0.156411    0.853895    0.382336     0.00000    1.000000    
    177 Ar    c    0.411360    0.087033    0.882777     0.00000    1.000000    
    178 Ar    c    0.679560    0.467224    0.598453     0.00000    1.000000    
    179 Ar    c    0.707842    0.223793    0.400694     0.00000    1.000000    
    180 Ar    c    0.475994    0.224109    0.781604     0.00000    1.000000    
    181 Ar    c    0.050359    0.403463    0.719837     0.00000    1.000000    
    182 Ar    c    0.310455    0.191381    0.792305     0.00000    1.000000    
    183 Ar    c    0.877527    0.309268    0.436112     0.00000    1.000000    
    184 Ar    c    0.819888    0.271017    0.280243     0.00000    1.000000    
    185 Ar    c    0.723793    0.971942    0.255017     0.00000    1.000000    
    186 Ar    c    0.532869    0.712780    0.692393     0.00000    1.000000    
    187 Ar    c    0.088560    0.125291    0.604751     0.00000    1.000000    
    188 Ar    c    0.859830    0.060358    0.863172     0.00000    1.000000    
    189 Ar    c    0.404442    0.286843    0.352995     0.00000    1.000000    
    190 Ar    c    0.397275    0.103689    0.676251     0.00000    1.000000    
    191 Ar    c    0.700436    0.936189    0.615228     0.00000    1.000000    
    192 Ar    c    0.829319    0.833657    0.238558     0.00000    1.000000    
    193 Ar    c    0.445560    0.660820    0.083554     0.00000    1.000000    
    194 Ar    c    0.949311    0.529420    0.794628     0.00000    1.000000    
    195 Ar    c    0.300374    0.148260    0.347819     0.00000    1.000000    
    196 Ar    c    0.871909    0.564758    0.173118     0.00000    1.000000    
    197 Ar    c    0.786654    0.321834    0.862967     0.00000    1.000000    
    198 Ar    c    0.543286    0.071721    0.192996     0.00000    1.000000    
    199 Ar    c    0.388745    0.802731    0.688990     0.00000    1.000000    
    200 Ar    c    0.498466    0.828388    0.015367     0.00000    1.000000    
    201 Ar    c    0.749319    0.018488    0.457619     0.00000    1.000000    
    202 Ar    c    0.045534    0.920810    0.978575     0.00000    1.000000    
    203 Ar    c    0.457318    0.359895    0.521525     0.00000    1.000000    
    204 Ar    c    0.145749    0.648905    0.997230     0.00000    1.000000    
    205 Ar    c    0.777997    0.876289    0.818180     0.00000    1.000000    
    206 Ar    c    0.644618    0.462857    0.774659     0.00000    1.000000    
    207 Ar    c    0.198125    0.089048    0.194150     0.00000    1.000000    
    208 Ar    c    0.309505    0.061619    0.494938     0.00000    1.000000    
    209 Ar    c    0.820503    0.100244    0.311468     0.00000    1.000000    
    210 Ar    c    0.563510    0.486485    0.248576     0.00000    1.000000    
    211 Ar    c    0.191318    0.475249    0.001778     0.00000    1.000000    
    212 Ar    c    0.184197    0.291606    0.744795     0.00000    1.000000    
    213 Ar    c    0.870340    0.714772    0.078013     0.00000    1.000000    
    214 Ar    c    0.521302    0.578084    0.796164     0.00000    1.000000    
    215 Ar    c    0.560201    0.230756    0.110299     0.00000    1.000000    
    216 Ar    c    0.393050    0.455783    0.677931     0.00000    1.000000    
    217 Ar    c    0.371353    0.293236    0.666173     0.00000    1.000000    
    218 Ar    c    0.478637    0.351111    0.218254     0.00000    1.000000    
    219 Ar    c    0.310884    0.416521    0.257248     0.00000    1.000000    
    220 Ar    c    0.838498    0.787571    0.683833     0.00000    1.000000    
    221 Ar    c    0.745679    0.274182    0.128309     0.00000    1.000000    
    222 Ar    c    0.860323    0.146720    0.462303     0.00000    1.000000    
    223 Ar    c    0.378680    0.720377    0.245680     0.00000    1.000000    
    224 Ar    c    0.962605    0.672043    0.700054     0.00000    1.000000    
    225 Ar    c    0.809443    0.153920    0.000000     0.00000    1.000000    
    226 Ar    c    0.006346    0.854831    0.279120     0.00000    1.000000    
    227 Ar    c    0.287238    0.019885    0.787255     0.00000    1.000000    
    228 Ar    c    0.055051    0.358883    0.020211     0.00000    1.000000    
    229 Ar    c    0.390343    0.891482    0.264987     0.00000    1.000000    
    230 Ar    c    0.005102    0.614833    0.085439     0.00000    1.000000    
    231 Ar    c    0.789629    0.083612    0.609042     0.00000    1.000000    
    232 Ar    c    0.957857    0.381639    0.878476     0.00000    1.000000    
    233 Ar    c    0.320488    0.800772    0.388935     0.00000    1.000000    
    234 Ar    c    0.098104    0.644757    0.273850     0.00000    1.000000    
    235 Ar    c    0.315962    0.358676    0.819604     0.00000    1.000000    
    236 Ar    c    0.140119    0.024057    0.463156     0.00000    1.000000    
    237 Ar    c    0.053887    0.661281    0.847155     0.00000    1.000000    
    238 Ar    c    0.216703    0.760272    0.256964     0.00000    1.000000    
    239 Ar    c    0.387811    0.951955    0.604387     0.00000    1.000000    
    240 Ar    c    0.363614    0.635215    0.402324     0.00000    1.000000    
    241 Ar    c    0.000000    0.841998    0.699831     0.00000    1.000000    
    242 Ar    c    0.981549    0.345018    0.573211     0.00000    1.000000    
    243 Ar    c    0.152349    0.126757    0.768073     0.00000    1.000000    
    244 Ar    c    0.864689    0.954012    0.689405     0.00000    1.000000    
    245 Ar    c    0.280734    0.384520    0.548397     0.00000    1.000000    
    246 Ar    c    0.643175    0.128182    0.531477     0.00000    1.000000    
    247 Ar    c    0.225723    0.861082    0.675636     0.00000    1.000000    
    248 Ar    c    0.293504    0.172883    0.080046     0.00000    1.000000    
    249 Ar    c    0.010391    0.756934    0.986376     0.00000    1.000000    
    250 Ar    c    0.621335    0.313572    0.541494     0.00000    1.000000    
    251 Ar    c    0.529341    0.211496    0.439593     0.00000    1.000000    
    252 Ar    c    0.466214    0.471418    0.101119     0.00000    1.000000    
    253 Ar    c    0.086977    0.762804    0.142293     0.00000    1.000000    
    254 Ar    c    0.717021    0.864042    0.390249     0.00000    1.000000    
    255 Ar    c    0.032033    0.112601    0.184133     0.00000    1.000000    
    256 Ar    c    0.771019    0.244999    0.564665     0.00000    1.000000    
--------------------------------------------------------------------------------


  Brillouin zone sampling points :

--------------------------------------------------------------------------------
  Point number          x          y          z            Weight
--------------------------------------------------------------------------------
        1           0.000000   0.000000   0.000000         1.0000
--------------------------------------------------------------------------------


********************************************************************************
*  General input information                                                   *
********************************************************************************

  Species output for all configurations : 

--------------------------------------------------------------------------------
  Species    Type    Atomic    Atomic    Charge       Radii (Angs)     Library
                     Number     Mass       (e)     Cova   Ionic  VDW   Symbol
--------------------------------------------------------------------------------
    Ar       Core       18      39.95   0.000000   0.000  0.000  0.000          
--------------------------------------------------------------------------------


  Lattice summation method               =    Ewald          (3-D)
                                         =    Parry          (2-D)
                                         =    Saunders et al (1-D)
  Accuracy factor for lattice sums       =   12.000


  Time limit = Infinity

  Maximum range for interatomic potentials =    100000.000000 Angstroms

  General interatomic potentials :

--------------------------------------------------------------------------------
Atom  Types   Potential         A         B         C         D     Cutoffs(Ang)
  1     2                                                            Min    Max 
--------------------------------------------------------------------------------
Ar   c Ar   c Lennard 12  6 0.995E+05  64.4      0.00      0.00     0.000  8.500
--------------------------------------------------------------------------------

********************************************************************************
*  Output for configuration   1                                                *
********************************************************************************


  Components of energy : 

--------------------------------------------------------------------------------
  Interatomic potentials     =         -19.69423482 eV
  Monopole - monopole (real) =           0.00000000 eV
  Monopole - monopole (recip)=           0.00000000 eV
  Monopole - monopole (total)=           0.00000000 eV
--------------------------------------------------------------------------------
  Total lattice energy       =         -19.69423482 eV
--------------------------------------------------------------------------------
  Total lattice energy       =           -1900.1926 kJ/(mole unit cells)
--------------------------------------------------------------------------------


  Elastic Constant Matrix: (Units=GPa)

-------------------------------------------------------------------------------
  Indices      1         2         3         4         5         6    
-------------------------------------------------------------------------------
       1      3.3862    2.2967    1.9120   -0.1483    0.0528   -0.0623
       2      2.2967    3.7132    1.8664   -0.0649   -0.0715    0.2468
       3      1.9120    1.8664    3.4888    0.2074    0.0732    0.0729
       4     -0.1483   -0.0649    0.2074    0.5493   -0.0062   -0.0765
       5      0.0528   -0.0715    0.0732   -0.0062    0.6989    0.0830
       6     -0.0623    0.2468    0.0729   -0.0765    0.0830    0.6703
-------------------------------------------------------------------------------


  Elastic Compliance Matrix: (Units=1/GPa)

-------------------------------------------------------------------------------
  Indices      1         2         3         4         5         6    
-------------------------------------------------------------------------------
       1    0.628619 -0.300204 -0.201288  0.241064 -0.082083  0.228510
       2   -0.300204  0.530955 -0.116996 -0.004151  0.115988 -0.225497
       3   -0.201288 -0.116996  0.476711 -0.255806 -0.042875 -0.051343
       4    0.241064 -0.004151 -0.255806  2.021062 -0.007421  0.283261
       5   -0.082083  0.115988 -0.042875 -0.007421  1.480589 -0.229905
       6    0.228510 -0.225497 -0.051343  0.283261 -0.229905  1.662596
-------------------------------------------------------------------------------

  Mechanical properties :

-------------------------------------------------------------------------------
  Convention :                    Reuss         Voigt         Hill
-------------------------------------------------------------------------------
  Bulk  Modulus (GPa)     =       2.50432       2.52649       2.51540
  Shear Modulus (GPa)     =       0.61195       0.68457       0.64826
-------------------------------------------------------------------------------
  Velocity S-wave (km/s)  =       0.59775       0.63222       0.61523
  Velocity P-wave (km/s)  =       1.39235       1.41708       1.40477
-------------------------------------------------------------------------------
  Compressibility (1/GPa) =    0.39931061
-------------------------------------------------------------------------------
  Stress axis :                     x             y             z
-------------------------------------------------------------------------------
  Youngs Moduli (GPa)     =       1.59079       1.88340       2.09771
-------------------------------------------------------------------------------
  Poissons Ratio (x)      =                     0.56540       0.42224
  Poissons Ratio (y)      =       0.47756                     0.24542
  Poissons Ratio (z)      =       0.32021       0.22035
-------------------------------------------------------------------------------


  Piezoelectric Strain Matrix: (Units=C/m**2)

-------------------------------------------------------------------------------
  Indices      1         2         3         4         5         6    
-------------------------------------------------------------------------------
       x    -0.00000  -0.00000  -0.00000  -0.00000  -0.00000  -0.00000
       y    -0.00000  -0.00000  -0.00000  -0.00000  -0.00000  -0.00000
       z    -0.00000  -0.00000  -0.00000  -0.00000  -0.00000  -0.00000
-------------------------------------------------------------------------------


  Piezoelectric Stress Matrix: (Units=10**-11 C/N)

-------------------------------------------------------------------------------
  Indices      1         2         3         4         5         6    
-------------------------------------------------------------------------------
       x     0.00000   0.00000   0.00000   0.00000   0.00000   0.00000
       y     0.00000   0.00000   0.00000   0.00000   0.00000   0.00000
       z     0.00000   0.00000   0.00000   0.00000   0.00000   0.00000
-------------------------------------------------------------------------------


  Static dielectric constant tensor : 

-------------------------------------------------------------------------------
              x         y         z
-------------------------------------------------------------------------------
       x     1.00000   0.00000   0.00000
       y     0.00000   1.00000   0.00000
       z     0.00000   0.00000   1.00000
--------------------------------------------------------------------------------

  Static refractive indices : 

-------------------------------------------------------------------------------
    1 =    1.00000      2 =    1.00000      3 =    1.00000
-------------------------------------------------------------------------------


  Phonon Calculation : 

  Number of k points for this configuration =        1

--------------------------------------------------------------------------------
  K point      1 =   0.000000  0.000000  0.000000  Weight =    1.000
--------------------------------------------------------------------------------

 Frequencies (cm-1) : 

   -0.00   -0.00    0.00    3.25    5.19    5.46    5.71    6.02    6.41
    6.80    7.32    7.67    7.98    8.15    8.22    8.60    8.87    9.09
    9.23    9.36    9.45    9.67    9.89   10.01   10.19   10.39   10.47
   10.57   10.89   11.22   11.36   11.38   11.57   11.70   11.80   11.90
   11.97   12.10   12.30   12.50   12.68   12.75   12.89   13.05   13.10
   13.18   13.39   13.61   13.63   13.79   13.84   13.93   14.15   14.22
   14.29   14.40   14.57   14.61   14.79   14.85   14.94   15.06   15.14
   15.34   15.40   15.54   15.61   15.89   15.90   16.10   16.23   16.34
   16.44   16.48   16.57   16.82   17.00   17.04   17.08   17.15   17.28
   17.38   17.41   17.59   17.65   17.71   17.81   17.85   17.97   18.10
   18.21   18.27   18.39   18.42   18.60   18.66   18.74   18.93   19.06
   19.13   19.17   19.28   19.31   19.41   19.49   19.57   19.71   19.73
   19.79   19.94   20.00   20.10   20.20   20.22   20.36   20.52   20.58
   20.62   20.65   20.77   20.85   20.95   21.06   21.13   21.20   21.25
   21.32   21.52   21.58   21.64   21.66   21.80   21.87   21.97   22.08
   22.09   22.16   22.23   22.40   22.48   22.58   22.61   22.67   22.72
   22.86   22.90   23.05   23.10   23.15   23.16   23.28   23.38   23.44
   23.55   23.60   23.64   23.64   23.76   23.88   23.99   24.02   24.09
   24.18   24.29   24.33   24.42   24.46   24.58   24.68   24.72   24.78
   24.90   24.98   25.03   25.04   25.08   25.19   25.31   25.38   25.42
   25.49   25.53   25.63   25.70   25.84   25.97   26.00   26.20   26.21
   26.22   26.29   26.31   26.42   26.46   26.54   26.60   26.64   26.70
   26.87   26.91   26.99   27.04   27.12   27.21   27.23   27.35   27.44
   27.51   27.61   27.66   27.76   27.84   27.89   27.95   28.00   28.08
   28.14   28.19   28.20   28.29   28.38   28.46   28.55   28.59   28.63
   28.80   28.89   28.93   28.94   29.02   29.09   29.20   29.21   29.27
   29.37   29.40   29.57   29.66   29.73   29.77   29.90   29.92   29.97
   30.02   30.19   30.28   30.35   30.43   30.45   30.52   30.55   30.63
   30.72   30.81   30.90   30.90   30.99   31.06   31.09   31.16   31.26
   31.32   31.38   31.45   31.55   31.61   31.68   31.78   31.88   31.89
   31.98   32.00   32.10   32.14   32.21   32.27   32.44   32.48   32.51
   32.60   32.65   32.78   32.86   33.00   33.02   33.05   33.07   33.12
   33.27   33.33   33.41   33.47   33.58   33.62   33.67   33.80   33.83
   33.86   33.95   33.95   34.06   34.08   34.20   34.30   34.35   34.44
   34.50   34.58   34.61   34.74   34.76   34.85   34.89   34.97   35.05
   35.08   35.13   35.20   35.23   35.27   35.37   35.49   35.51   35.55
   35.70   35.74   35.84   35.85   35.90   36.00   36.02   36.15   36.17
   36.27   36.36   36.42   36.47   36.51   36.61   36.64   36.74   36.78
   36.92   36.98   37.00   37.08   37.12   37.17   37.25   37.32   37.44
   37.54   37.62   37.70   37.77   37.86   37.98   38.04   38.10   38.18
   38.22   38.30   38.42   38.44   38.52   38.54   38.61   38.69   38.73
   38.77   38.90   38.91   38.98   39.12   39.13   39.24   39.26   39.31
   39.44   39.51   39.68   39.79   39.87   39.90   39.94   40.06   40.08
   40.16   40.19   40.26   40.32   40.38   40.47   40.47   40.62   40.68
   40.80   40.84   40.87   41.09   41.16   41.21   41.24   41.30   41.32
   41.39   41.48   41.56   41.65   41.78   41.80   41.84   41.93   41.97
   42.02   42.08   42.22   42.26   42.35   42.41   42.44   42.52   42.62
   42.71   42.75   42.85   42.90   42.95   42.95   43.05   43.09   43.12
   43.20   43.33   43.39   43.47   43.51   43.67   43.78   43.83   43.92
   43.97   44.04   44.10   44.25   44.27   44.37   44.42   44.49   44.60
   44.73   44.76   44.85   44.89   44.94   45.00   45.04   45.25   45.34
   45.37   45.45   45.48   45.51   45.64   45.66   45.74   45.90   45.93
   45.99   46.08   46.17   46.23   46.28   46.36   46.45   46.58   46.62
   46.66   46.72   46.77   46.94   46.95   47.01   47.10   47.19   47.32
   47.33   47.40   47.48   47.56   47.73   47.75   47.82   47.86   47.99
   48.03   48.10   48.16   48.36   48.37   48.45   48.49   48.53   48.71
   48.84   48.92   48.97   49.01   49.10   49.18   49.19   49.35   49.37
   49.48   49.55   49.67   49.69   49.71   49.83   49.92   50.01   50.06
   50.13   50.26   50.28   50.37   50.42   50.53   50.56   50.73   50.81
   50.87   50.99   51.00   51.06   51.15   51.20   51.36   51.46   51.49
   51.53   51.64   51.73   51.90   51.96   52.00   52.06   52.16   52.27
   52.33   52.46   52.49   52.56   52.66   52.69   52.80   52.85   52.95
   53.00   53.03   53.16   53.27   53.34   53.47   53.51   53.61   53.66
   53.83   53.98   53.99   54.04   54.17   54.33   54.40   54.45   54.53
   54.61   54.72   54.75   54.77   54.97   55.01   55.15   55.16   55.24
   55.42   55.43   55.59   55.66   55.69   55.73   55.74   55.83   55.95
   56.03   56.19   56.24   56.28   56.39   56.45   56.51   56.60   56.74
   56.84   56.92   57.11   57.23   57.29   57.42   57.51   57.66   57.71
   57.77   57.86   57.95   58.01   58.04   58.07   58.18   58.26   58.38
   58.49   58.67   58.70   58.82   58.96   59.07   59.07   59.16   59.19
   59.38   59.48   59.56   59.59   59.66   59.72   59.97   59.98   60.06
   60.12   60.22   60.31   60.45   60.50   60.53   60.70   60.74   60.79
   60.90   61.03   61.13   61.21   61.26   61.29   61.41   61.48   61.56
   61.69   61.75   61.85   62.04   62.07   62.16   62.20   62.37   62.54
   62.58   62.70   62.82   62.87   63.01   63.11   63.21   63.28   63.39
   63.47   63.55   63.63   63.78   63.86   63.95   64.01   64.10   64.21
   64.27   64.37   64.47   64.49   64.65   64.68   64.85   65.06   65.13
   65.27   65.41   65.50   65.59   65.71   65.89   66.04   66.18   66.33
   66.39   66.47   66.57   66.73   66.81   66.96   67.02   67.25   67.40
   67.51   67.74   67.81   67.89   67.97   68.13   68.31   68.43   68.83
   68.93   68.99   69.21   69.28   69.45   69.57   69.82   69.85   70.03
   70.11   70.20   70.39   70.53   70.61   70.88   71.10   71.31   71.68
   71.80   71.97   72.27   72.79   72.86   73.37   73.41   73.68   73.82
   74.03   74.15   74.30   74.64   75.29   75.42   76.21   76.34   76.59
   76.85   76.91   77.44   77.67   78.03   78.30   78.51   79.47   81.23
   82.44   82.85   86.35



  Thermal conductivity: 

  Lorentzian broadening factor =     0.1089

--------------------------------------------------------------------------------
 Mode    : Frequency (cm-1)         Thermal conductivity                        
--------------------------------------------------------------------------------
     4        3.2488             188294.23685615
     5        5.1862             235235.01338612
     6        5.4569             271967.23404770
     7        5.7083             209779.11781869
     8        6.0151             137490.93719043
     9        6.4081             152045.93587446
    10        6.8003             153039.50037292
    11        7.3188              71885.67853631
    12        7.6710             123417.36232908
    13        7.9783             234955.94153279
    14        8.1475             281697.08154146
    15        8.2191             265858.89614790
    16        8.5986             201452.79351708
    17        8.8738             234719.64028343
    18        9.0923             414776.36160628
    19        9.2290             404016.09237976
    20        9.3613             320830.20285697
    21        9.4507             194285.08440487
    22        9.6690             291646.14162009
    23        9.8863             438881.45912697
    24       10.0113             416072.54658918
    25       10.1881             239474.31080745
    26       10.3873             306568.20120192
    27       10.4680             392404.28384661
    28       10.5745             272314.42821447
    29       10.8945             123235.63603760
    30       11.2211             220166.08911183
    31       11.3569             347565.50690534
    32       11.3839             200466.57392462
    33       11.5723             254365.56421561
    34       11.6977             344537.35583650
    35       11.7997             569304.03046449
    36       11.8976             521765.33816506
    37       11.9702             226739.48079492
    38       12.1049             238622.99091657
    39       12.2953             181199.01294373
    40       12.5022             245786.59887211
    41       12.6796             449467.62750809
    42       12.7482             453905.30293247
    43       12.8859             236617.18154223
    44       13.0523             287005.98813332
    45       13.0979             244570.35465692
    46       13.1829             275936.93304031
    47       13.3850             232384.61869613
    48       13.6068             721469.79734983
    49       13.6327             916135.38686934
    50       13.7874             333137.81924197
    51       13.8422             280443.09195648
    52       13.9318             252140.75843724
    53       14.1487             329825.04219084
    54       14.2196             483531.96105054
    55       14.2912             401399.11848431
    56       14.4047             311420.02320712
    57       14.5736             349872.19383864
    58       14.6063             357066.75538441
    59       14.7859             364013.05732893
    60       14.8498             516697.50911777
    61       14.9445             472655.52130174
    62       15.0550             386492.67156121
    63       15.1376             246494.11227951
    64       15.3363             394495.30012099
    65       15.3974             619001.68425143
    66       15.5421             517012.60348766
    67       15.6118             206763.62885357
    68       15.8944             310973.05881016
    69       15.8990             311654.20239072
    70       16.0994             229158.69833126
    71       16.2330             232932.15445737
    72       16.3434             325019.41523368
    73       16.4385             498710.99308372
    74       16.4812             459126.90738552
    75       16.5685             453336.85687993
    76       16.8152             171193.03420493
    77       16.9997             527217.20259731
    78       17.0352             482765.09971162
    79       17.0825             349121.55443650
    80       17.1520             306492.90625700
    81       17.2791             337309.56565728
    82       17.3799             432096.51029430
    83       17.4122             432648.29006744
    84       17.5865             362589.92076611
    85       17.6470             473017.33271848
    86       17.7104             239220.81579221
    87       17.8077             775364.26928565
    88       17.8513             905013.95093969
    89       17.9730             327423.28668014
    90       18.1029             245497.98875472
    91       18.2112             201527.51754630
    92       18.2749             369554.46993666
    93       18.3894             451339.79996127
    94       18.4176             472924.63088984
    95       18.5997             239606.40256415
    96       18.6645             307509.17167848
    97       18.7388             240512.18022389
    98       18.9320             238425.47557343
    99       19.0626             237750.97854644
   100       19.1274             268284.70604461
   101       19.1678             301056.41268496
   102       19.2801             465925.13953187
   103       19.3069             351927.49197775
   104       19.4110             317052.32552715
   105       19.4869             216433.79389017
   106       19.5671             182595.51735854
   107       19.7124             324357.64872680
   108       19.7309             334944.58863729
   109       19.7918             512528.29044608
   110       19.9450             473250.23018175
   111       19.9973             511145.29758753
   112       20.1034             517214.89953270
   113       20.1950             379455.07240161
   114       20.2212             408047.79468351
   115       20.3564             336213.28819231
   116       20.5182             313452.45271127
   117       20.5831             324926.08555318
   118       20.6240             326701.73259439
   119       20.6460             248846.74654650
   120       20.7672             414379.77232501
   121       20.8527             389044.79891684
   122       20.9519             303376.51739315
   123       21.0598             434623.64903146
   124       21.1288             249551.93441317
   125       21.1991             345255.39502705
   126       21.2469             578868.05646771
   127       21.3232             507235.86202644
   128       21.5224             275183.20108747
   129       21.5785             364522.78806050
   130       21.6364             320800.39363783
   131       21.6650             489845.25368477
   132       21.8046             409998.71136006
   133       21.8738             631375.58536064
   134       21.9661             581493.84925414
   135       22.0764             397189.33206967
   136       22.0864             323394.13693983
   137       22.1637             394530.12394409
   138       22.2259             413015.34565062
   139       22.3991             270577.92363679
   140       22.4808             269654.95121699
   141       22.5815             370723.03702712
   142       22.6103             839673.93169708
   143       22.6690             882586.30194925
   144       22.7172             546892.99440809
   145       22.8609             316723.08929466
   146       22.9021             390038.33869952
   147       23.0461             282238.80426960
   148       23.1040             320857.76603751
   149       23.1496             373891.48347993
   150       23.1569             387014.39876467
   151       23.2848             460997.43653139
   152       23.3782             551591.60857566
   153       23.4443             463126.20746338
   154       23.5456             652343.21336596
   155       23.5951             587830.53136617
   156       23.6370             486353.45680205
   157       23.6399             393025.70967835
   158       23.7569             341828.04523939
   159       23.8837             315397.87456002
   160       23.9876             573125.81221819
   161       24.0156             612026.81652114
   162       24.0858             320778.30762198
   163       24.1833             247708.81821919
   164       24.2859             251441.68341601
   165       24.3309             429690.64566109
   166       24.4181             452062.28829950
   167       24.4574             496515.44952296
   168       24.5849             338595.00222324
   169       24.6815             276701.96695522
   170       24.7213             366797.45976024
   171       24.7832             361327.80433488
   172       24.9036             377768.30808291
   173       24.9811             365597.84331849
   174       25.0322             357726.78120923
   175       25.0444             374659.88790874
   176       25.0766             495957.63619078
   177       25.1894             449970.89003774
   178       25.3102             429460.92439956
   179       25.3846             380087.89885954
   180       25.4218             398319.85807032
   181       25.4905             453999.10865233
   182       25.5279             255802.56579270
   183       25.6338             297718.32635988
   184       25.6996             272517.30652097
   185       25.8366             258797.03357168
   186       25.9713             345555.35953546
   187       26.0011             371117.62711887
   188       26.1977             408427.19364448
   189       26.2078             466465.34970479
   190       26.2240             247646.08972381
   191       26.2857             406003.15631711
   192       26.3066             378277.65907069
   193       26.4219             324904.91569317
   194       26.4617             459847.10603883
   195       26.5380             662076.02127129
   196       26.5985             387710.59979912
   197       26.6392             604013.87054761
   198       26.7028             222537.26571303
   199       26.8655             228719.66769791
   200       26.9108             239377.12384369
   201       26.9899             191158.48410009
   202       27.0398             392409.17054076
   203       27.1191             310053.18006934
   204       27.2053             429483.05294756
   205       27.2303             416447.25506386
   206       27.3496             249823.20214127
   207       27.4361             389973.38111929
   208       27.5076             302513.74158694
   209       27.6103             216234.84597080
   210       27.6570             300749.33407647
   211       27.7578             335560.14020650
   212       27.8350             275363.79834428
   213       27.8885             408395.10036397
   214       27.9485             512056.20764042
   215       27.9985             630537.15480046
   216       28.0821             453789.89031554
   217       28.1414             327286.37168092
   218       28.1934             420979.71367866
   219       28.2043             469644.55131493
   220       28.2862             520908.30310248
   221       28.3826             409063.48247658
   222       28.4645             313918.36088447
   223       28.5526             410021.92997806
   224       28.5888             546863.40593116
   225       28.6332             499197.64748324
   226       28.7980             223026.46569496
   227       28.8898             391840.30857608
   228       28.9274             344995.76322557
   229       28.9403             290869.78103083
   230       29.0166             421531.46526743
   231       29.0895             332014.94367740
   232       29.1962             451864.47067368
   233       29.2123             381295.01950592
   234       29.2717             295348.52163455
   235       29.3733             272607.69419771
   236       29.4032             282435.54019934
   237       29.5685             233287.40818909
   238       29.6582             222077.16130808
   239       29.7289             334902.66821531
   240       29.7695             353468.68171332
   241       29.8955             329664.09902485
   242       29.9228             277082.50630073
   243       29.9706             366014.29041656
   244       30.0227             268448.24861520
   245       30.1892             259103.59720526
   246       30.2759             462278.28137834
   247       30.3495             511826.91315094
   248       30.4271             462852.93329820
   249       30.4496             454121.96764641
   250       30.5198             353272.89668771
   251       30.5456             285959.27198155
   252       30.6334             268403.23537413
   253       30.7227             365338.92714082
   254       30.8145             506334.49116531
   255       30.8959            1013982.15752362
   256       30.9017             587032.84166062
   257       30.9928             442386.71327118
   258       31.0650             309723.10554447
   259       31.0914             392480.11512991
   260       31.1594             588893.11913650
   261       31.2568             394988.24723739
   262       31.3163             331781.37783808
   263       31.3768             446439.23140488
   264       31.4503             431778.81594877
   265       31.5510             240227.62579379
   266       31.6089             446931.26468593
   267       31.6755             436892.18502039
   268       31.7802             526604.55581111
   269       31.8783             822118.75383537
   270       31.8945             808198.87241249
   271       31.9774             539760.35334824
   272       31.9952             529901.39713766
   273       32.0959             350735.11616730
   274       32.1445             262518.91770707
   275       32.2134             326205.56326169
   276       32.2656             359575.78698970
   277       32.4377             253780.59371971
   278       32.4766             248699.40674988
   279       32.5086             345663.67837114
   280       32.6045             378638.16800640
   281       32.6536             347360.91926862
   282       32.7780             224830.60998795
   283       32.8627             388172.05051259
   284       33.0047             466634.24580125
   285       33.0164             602803.09496156
   286       33.0491             533404.68586591
   287       33.0667             581789.68506506
   288       33.1232             498459.89967469
   289       33.2723             238045.23378085
   290       33.3317             318369.48639175
   291       33.4054             307693.78144628
   292       33.4711             358979.30054569
   293       33.5755             413482.16458151
   294       33.6159             406430.09858132
   295       33.6668             329283.85606715
   296       33.8014             417734.22633088
   297       33.8258             426510.16779201
   298       33.8623             479218.82971801
   299       33.9457             380706.53487524
   300       33.9497             533097.40148069
   301       34.0567             333470.48706516
   302       34.0816             392746.58866317
   303       34.2042             317206.95696980
   304       34.2978             455379.34149161
   305       34.3492             409763.50807251
   306       34.4352             290836.89573675
   307       34.5015             398986.95101508
   308       34.5805             246341.40024713
   309       34.6114             299864.59162464
   310       34.7365             392403.96913551
   311       34.7607             330363.55502022
   312       34.8497             351040.80014784
   313       34.8864             257669.31313833
   314       34.9719             437256.83304641
   315       35.0473             476000.90881495
   316       35.0825             492752.19542395
   317       35.1323             479893.67957395
   318       35.1951             632575.71545492
   319       35.2321             527532.50805371
   320       35.2722             341833.68853010
   321       35.3743             261611.98884484
   322       35.4919             307747.09345635
   323       35.5083             274883.58244454
   324       35.5454             291844.25934961
   325       35.7032             348815.77662945
   326       35.7410             354484.00738975
   327       35.8388             324447.82199110
   328       35.8547             262746.82008062
   329       35.9014             308219.50554469
   330       35.9983             261170.38985084
   331       36.0235             200127.74097180
   332       36.1487             307588.40232074
   333       36.1703             269959.61378135
   334       36.2732             305285.96108432
   335       36.3551             480339.54336497
   336       36.4212             395609.46958652
   337       36.4657             514838.12229441
   338       36.5098             335928.56422379
   339       36.6135             371789.76675277
   340       36.6387             433358.25547082
   341       36.7363             305496.91964133
   342       36.7785             232756.74749237
   343       36.9195             783883.80194799
   344       36.9794             654827.24099555
   345       36.9994             590055.22065902
   346       37.0792             279170.69815880
   347       37.1229             318577.19488976
   348       37.1727             270159.56691003
   349       37.2460             278300.55349675
   350       37.3160             247313.66862656
   351       37.4434             238923.61021199
   352       37.5416             265142.39751528
   353       37.6196             326601.52280585
   354       37.6978             199539.07659030
   355       37.7698             315586.87187040
   356       37.8622             283256.70674010
   357       37.9751             464313.96468262
   358       38.0409             290043.33572345
   359       38.1018             514272.17456024
   360       38.1810             344492.75701063
   361       38.2225             470522.41670084
   362       38.2986             379660.97685557
   363       38.4208             298663.19033583
   364       38.4370             406603.73162568
   365       38.5204             349305.38220985
   366       38.5381             359637.76492051
   367       38.6125             354204.79066677
   368       38.6856             316686.16304285
   369       38.7279             366868.93153754
   370       38.7695             319774.47448103
   371       38.9003             375457.54272242
   372       38.9111             529366.35465936
   373       38.9817             447926.62852942
   374       39.1245             391290.65318737
   375       39.1298             280535.36294734
   376       39.2433             402352.01615462
   377       39.2621             440974.14544741
   378       39.3149             541765.23205322
   379       39.4395             241001.50334868
   380       39.5074             218589.21986358
   381       39.6755             237001.47061143
   382       39.7945             220284.13213554
   383       39.8708             267407.18222816
   384       39.8955             327058.76337351
   385       39.9389             360692.51146153
   386       40.0576             323633.79983076
   387       40.0817             317793.05435920
   388       40.1610             447000.16089897
   389       40.1927             391444.22268261
   390       40.2620             290325.36784856
   391       40.3201             413166.63892378
   392       40.3792             365592.98600462
   393       40.4676             321277.16970439
   394       40.4716             464215.90938982
   395       40.6225             511974.70154320
   396       40.6823             389441.73973612
   397       40.7991             457612.54237986
   398       40.8397             336325.73542635
   399       40.8741             332733.80816313
   400       41.0891             245532.96637425
   401       41.1617             432780.13436758
   402       41.2118             545859.53047878
   403       41.2393             473584.54563102
   404       41.2962             422995.72918965
   405       41.3202             540375.40783872
   406       41.3948             406226.92242263
   407       41.4769             241901.87037752
   408       41.5587             352677.13933126
   409       41.6457             299823.16991871
   410       41.7818             423195.23058862
   411       41.7951             393929.09704961
   412       41.8410             314382.05105609
   413       41.9348             335099.67655485
   414       41.9669             394846.89847200
   415       42.0221             440894.32326538
   416       42.0820             413516.94105795
   417       42.2245             503831.26396271
   418       42.2554             462235.35112905
   419       42.3472             285255.98800833
   420       42.4055             310759.68087113
   421       42.4368             237562.98086297
   422       42.5196             327070.47489936
   423       42.6156             335411.32281169
   424       42.7140             379793.33667689
   425       42.7546             306368.92859352
   426       42.8507             726266.15520830
   427       42.9001             475294.64753843
   428       42.9508             791684.66114949
   429       42.9546             338699.09675380
   430       43.0544             438333.35638717
   431       43.0930             451845.24362063
   432       43.1197             277050.46725550
   433       43.1964             275350.17248141
   434       43.3316             322969.34353693
   435       43.3853             307924.17339196
   436       43.4665             280596.72347013
   437       43.5142             255801.93269312
   438       43.6695             307007.13624107
   439       43.7761             360916.77642974
   440       43.8322             323265.39598513
   441       43.9238             367975.63247030
   442       43.9743             361820.87145289
   443       44.0367             455402.18977126
   444       44.1035             259615.83013845
   445       44.2488             321926.23208024
   446       44.2737             299220.12425728
   447       44.3681             353986.68509522
   448       44.4200             381698.22744113
   449       44.4857             220242.15933376
   450       44.5966             334721.14650954
   451       44.7314             236711.22077345
   452       44.7645             345867.19840091
   453       44.8508             349111.50081184
   454       44.8909             476522.81104541
   455       44.9423             458056.47112783
   456       45.0018             539703.01476937
   457       45.0420             382709.60260438
   458       45.2462             305853.20282286
   459       45.3352             467249.48672981
   460       45.3652             400470.88447033
   461       45.4458             372902.30886710
   462       45.4823             430119.36171524
   463       45.5126             473028.32520600
   464       45.6411             296765.43326576
   465       45.6551             397115.65896003
   466       45.7436             393774.59502652
   467       45.8951             259185.33687836
   468       45.9258             392765.59774269
   469       45.9862             362248.02354050
   470       46.0811             292922.20805462
   471       46.1711             371201.00987771
   472       46.2261             300142.52868646
   473       46.2774             385919.95635511
   474       46.3631             370301.80113270
   475       46.4465             301647.67203662
   476       46.5795             256626.42590751
   477       46.6214             242391.70821594
   478       46.6608             409065.42742129
   479       46.7184             332280.67385916
   480       46.7704             380637.82676988
   481       46.9390             340910.91643137
   482       46.9478             449530.24523342
   483       47.0096             351408.98151782
   484       47.0996             324920.92923770
   485       47.1867             264853.94286394
   486       47.3166             424086.70722333
   487       47.3265             357058.50026821
   488       47.3983             278989.22318481
   489       47.4807             264318.59702957
   490       47.5640             204784.64044848
   491       47.7314             284047.47763507
   492       47.7486             292767.00367135
   493       47.8165             245614.47973609
   494       47.8614             289281.23690293
   495       47.9922             372730.52005565
   496       48.0280             320450.13066368
   497       48.0956             271384.51210454
   498       48.1597             173000.54288913
   499       48.3603             315796.93857691
   500       48.3658             327409.34439353
   501       48.4517             367012.85559947
   502       48.4857             346751.93614937
   503       48.5297             186772.67538856
   504       48.7078             229877.10593473
   505       48.8396             327312.61632782
   506       48.9191             224245.80604984
   507       48.9746             179155.27267199
   508       49.0108             319841.17876051
   509       49.1004             376799.51223040
   510       49.1807             333824.83443023
   511       49.1927             247079.29511897
   512       49.3466             254386.05349181
   513       49.3715             251605.84074392
   514       49.4776             172232.62902349
   515       49.5503             282058.63242402
   516       49.6663             240115.86571788
   517       49.6948             254961.89668850
   518       49.7138             278681.43015040
   519       49.8267             231291.19101561
   520       49.9241             186313.64527917
   521       50.0115             245917.03059280
   522       50.0630             191438.46130662
   523       50.1321             268853.71702631
   524       50.2603             204742.79395742
   525       50.2803             256827.88375472
   526       50.3742             487446.08206440
   527       50.4207             305377.55700023
   528       50.5272             346330.25243501
   529       50.5623             181513.31185566
   530       50.7255             198257.97559271
   531       50.8132             319137.28726611
   532       50.8736             209279.19918419
   533       50.9851             354076.43624585
   534       50.9964             425008.77380842
   535       51.0609             520677.23209041
   536       51.1500             467731.09662327
   537       51.1976             429187.72754059
   538       51.3551             251419.40549378
   539       51.4649             230177.31115970
   540       51.4911             284014.94672414
   541       51.5276             300938.22027099
   542       51.6389             272690.43924517
   543       51.7280             136781.40933445
   544       51.8972             280392.21789857
   545       51.9572             393044.73540935
   546       51.9962             259822.31492116
   547       52.0584             416294.63525871
   548       52.1606             199429.00980272
   549       52.2727             158068.37222361
   550       52.3260             160096.47496850
   551       52.4550             225605.65205588
   552       52.4890             208514.16779191
   553       52.5629             297733.64083466
   554       52.6552             321583.18808607
   555       52.6912             381514.53877559
   556       52.7964             289338.66348619
   557       52.8503             211835.29022806
   558       52.9548             360583.63201959
   559       53.0031             316598.33209930
   560       53.0268             363000.82490169
   561       53.1603             236153.73791179
   562       53.2720             183504.33199587
   563       53.3444             215769.12041508
   564       53.4662             232280.05158867
   565       53.5118             210807.43449413
   566       53.6110             189662.83704333
   567       53.6634             143223.79423357
   568       53.8292             197380.16699382
   569       53.9819             476337.15139348
   570       53.9885             374192.07961463
   571       54.0359             316899.39399098
   572       54.1658             182445.71347999
   573       54.3284             206758.61890723
   574       54.3986             292092.12326130
   575       54.4535             180791.68542846
   576       54.5270             307124.08764064
   577       54.6050             388843.80426634
   578       54.7211             392845.17736133
   579       54.7480             242156.21966888
   580       54.7655             371299.11242436
   581       54.9694             504173.41458367
   582       55.0055             488505.58724943
   583       55.1509             133272.16840020
   584       55.1646             193842.30877884
   585       55.2438             169648.80218466
   586       55.4195             236748.85422412
   587       55.4273             170104.53675228
   588       55.5911             332914.42830141
   589       55.6573             298525.36981266
   590       55.6913             446555.55183133
   591       55.7328             428684.67252379
   592       55.7392             481522.65412094
   593       55.8299             263451.56480134
   594       55.9525             227351.63743392
   595       56.0339             130603.61174909
   596       56.1947             216332.98595334
   597       56.2357             152733.78870096
   598       56.2755             208738.19749469
   599       56.3863             239887.28754068
   600       56.4467             201734.87593224
   601       56.5115             184713.41127226
   602       56.6033             156037.94880371
   603       56.7367             180263.41551612
   604       56.8419             259692.19907946
   605       56.9169             168708.66572585
   606       57.1073             251229.31141127
   607       57.2286             293138.18895377
   608       57.2947             166379.35538563
   609       57.4178             158806.61625448
   610       57.5105             159288.91103515
   611       57.6561             143480.21871128
   612       57.7097             217137.56312723
   613       57.7734             293059.50491828
   614       57.8592             214466.36956900
   615       57.9530             334350.79335323
   616       58.0132             360841.55066022
   617       58.0405             383591.79688072
   618       58.0719             406793.98178509
   619       58.1805             388386.66657706
   620       58.2638             235387.73615858
   621       58.3820             229177.56068795
   622       58.4887             175078.50985178
   623       58.6737             167850.15928863
   624       58.7041             247056.46099732
   625       58.8170             101966.78488249
   626       58.9637             204323.49921816
   627       59.0654             187478.76366751
   628       59.0707             228183.14966857
   629       59.1556             218312.91475932
   630       59.1932             240748.97825672
   631       59.3764             212123.87586066
   632       59.4833             251627.17975970
   633       59.5558             310471.80183793
   634       59.5933             277504.34558316
   635       59.6562             229196.25073722
   636       59.7231             285569.68063890
   637       59.9682             263391.79475835
   638       59.9777             277641.79116912
   639       60.0591             347553.31495440
   640       60.1227             295903.68162697
   641       60.2230             261331.03873156
   642       60.3120             160116.47290750
   643       60.4487             138534.43027807
   644       60.5023             214348.29956594
   645       60.5275             173951.05416870
   646       60.6970             256023.71403558
   647       60.7403             180263.25301134
   648       60.7945             174344.75452767
   649       60.8984             171710.38564816
   650       61.0254             188200.87090339
   651       61.1344             215229.51816188
   652       61.2125             241996.53572272
   653       61.2639             347149.92613063
   654       61.2900             315166.79030236
   655       61.4149             229839.90426233
   656       61.4826             261675.15368554
   657       61.5623             192091.44415935
   658       61.6866             123110.96329524
   659       61.7476             179397.04243201
   660       61.8472             169136.22187027
   661       62.0353             166018.54463935
   662       62.0729             254879.71916443
   663       62.1565             262792.39276044
   664       62.1990             169795.16234719
   665       62.3681              95714.70743809
   666       62.5405             151478.42610990
   667       62.5759             123321.37822428
   668       62.6969             147040.98316355
   669       62.8182             109126.54698648
   670       62.8695             118023.23831448
   671       63.0114             227812.66481479
   672       63.1062             316350.51598659
   673       63.2087             123843.34011940
   674       63.2770             116609.88524667
   675       63.3926             122444.30020363
   676       63.4673             153954.71961533
   677       63.5509              81175.24547858
   678       63.6328             112459.04243087
   679       63.7789             109562.80696074
   680       63.8633             124745.89191645
   681       63.9540             186512.44658387
   682       64.0107             231588.33303073
   683       64.1045             154006.04816701
   684       64.2124             332105.02066414
   685       64.2665             250018.70245285
   686       64.3734             137963.06223364
   687       64.4695             143228.56735066
   688       64.4859             170203.39255296
   689       64.6549             185480.20845047
   690       64.6822             186428.69942689
   691       64.8490              54366.90181067
   692       65.0638              54211.52814473
   693       65.1329              76970.55608425
   694       65.2662             110165.44989490
   695       65.4101             117084.88811555
   696       65.4987             119158.57744768
   697       65.5898              87123.33013389
   698       65.7096              90351.05077078
   699       65.8943              72737.06929028
   700       66.0443              65467.70626378
   701       66.1847              61310.38341639
   702       66.3292              84337.24491069
   703       66.3921             176695.08895066
   704       66.4705             168981.17099369
   705       66.5736             106011.52818613
   706       66.7284             101188.99637029
   707       66.8066             141786.34729437
   708       66.9576             136616.31637667
   709       67.0153             150458.81946152
   710       67.2512              80217.78659149
   711       67.4019              62691.33334014
   712       67.5116              68388.20374717
   713       67.7367              87920.58035873
   714       67.8079             112622.16226119
   715       67.8937             143827.01601764
   716       67.9674             129201.73341920
   717       68.1264              68950.36803842
   718       68.3097              80118.09933592
   719       68.4276              48417.64253085
   720       68.8271              73350.99778564
   721       68.9283              81520.02468063
   722       68.9850              69599.59992787
   723       69.2094             105688.37330056
   724       69.2802             111923.66845146
   725       69.4547              69941.02732832
   726       69.5707              56146.90553178
   727       69.8195              71753.34031653
   728       69.8483              63546.23961088
   729       70.0331              70886.10107934
   730       70.1110              73329.51353875
   731       70.2036              72616.77728097
   732       70.3872              45206.61278752
   733       70.5281              82214.35570119
   734       70.6101              66331.60405937
   735       70.8812              21832.35934461
   736       71.0965              19182.60560944
   737       71.3070              29116.64937377
   738       71.6836              59522.79373089
   739       71.8018              61610.69596384
   740       71.9721              32283.14418666
   741       72.2651              26184.10537129
   742       72.7941              32758.56952818
   743       72.8602              33378.60902450
   744       73.3670              84660.67433645
   745       73.4067              79118.25546867
   746       73.6823              31147.41152414
   747       73.8168              22563.77098288
   748       74.0319              44154.75726773
   749       74.1519              62837.01157947
   750       74.3035              39023.58146238
   751       74.6422              19432.45092603
   752       75.2851               9881.21621681
   753       75.4212              19840.02112132
   754       76.2103              52601.03005168
   755       76.3446              43765.68430232
   756       76.5906              15443.40278153
   757       76.8502              75694.99380570
   758       76.9126              72152.65555553
   759       77.4417              22214.13685725
   760       77.6652               9858.12006450
   761       78.0298              13091.24882534
   762       78.3023               9947.21786635
   763       78.5114               7798.81572742
   764       79.4656               3745.59018976
   765       81.2291               6022.78005354
   766       82.4449               3180.61406543
   767       82.8510               5433.32486880
   768       86.3543               1835.57943370
--------------------------------------------------------------------------------

--------------------------------------------------------------------------------
  Phonon properties (per mole of unit cells): Temperature =      0.000 K
--------------------------------------------------------------------------------
  Zero point energy            =        1.930227 eV
--------------------------------------------------------------------------------

  Phonon density of states : 

--------------------------------------------------------------------------------
 Frequency (cm-1) Density of States                                             
--------------------------------------------------------------------------------
    0.00000 |**                                                            0.001
    1.34929 |                                                              0.000
    2.69857 |**                                                            0.001
    4.04786 |**                                                            0.001
    5.39715 |***********                                                   0.005
    6.74644 |***********                                                   0.005
    8.09572 |********************                                          0.009
    9.44501 |**********************                                        0.010
   10.79430 |****************************                                  0.013
   12.14358 |*************************                                     0.012
   13.49287 |**********************************                            0.016
   14.84216 |*******************************                               0.014
   16.19145 |*************************************                         0.017
   17.54073 |****************************************                      0.018
   18.89002 |************************************************              0.022
   20.23931 |******************************************                    0.020
   21.58859 |************************************************              0.022
   22.93788 |***************************************************           0.023
   24.28717 |******************************************************        0.025
   25.63646 |************************************************              0.022
   26.98574 |*********************************************************     0.026
   28.33503 |***************************************************           0.023
   29.68432 |******************************************************        0.025
   31.03361 |******************************************************        0.025
   32.38289 |******************************************************        0.025
   33.73218 |*********************************************************     0.026
   35.08147 |************************************************************  0.027
   36.43075 |******************************************************        0.025
   37.78004 |******************************************************        0.025
   39.12933 |*********************************************************     0.026
   40.47862 |************************************************              0.022
   41.82790 |************************************************************  0.027
   43.17719 |************************************************              0.022
   44.52648 |************************************************              0.022
   45.87576 |******************************************************        0.025
   47.22505 |***************************************************           0.023
   48.57434 |*********************************************                 0.021
   49.92363 |***************************************************           0.023
   51.27291 |*********************************************                 0.021
   52.62220 |******************************************                    0.020
   53.97149 |************************************************              0.022
   55.32077 |************************************************              0.022
   56.67006 |****************************************                      0.018
   58.01935 |****************************************                      0.018
   59.36864 |*********************************************                 0.021
   60.71792 |******************************************                    0.020
   62.06721 |****************************************                      0.018
   63.41650 |******************************************                    0.020
   64.76578 |****************************                                  0.013
   66.11507 |*******************************                               0.014
   67.46436 |**********************                                        0.010
   68.81365 |*******************************                               0.014
   70.16293 |********************                                          0.009
   71.51222 |*****************                                             0.008
   72.86151 |*****************                                             0.008
   74.21079 |***********                                                   0.005
   75.56008 |***********                                                   0.005
   76.90937 |***********                                                   0.005
   78.25866 |********                                                      0.004
   79.60794 |                                                              0.000
   80.95723 |**                                                            0.001
   82.30652 |*****                                                         0.003
   83.65581 |                                                              0.000
   85.00509 |**                                                            0.001
--------------------------------------------------------------------------------



  XYZ File written as gulp.xyz                                


  Time to end of properties =      17.4091 seconds


  Peak dynamic memory used =      10.73 MB 


  Timing analysis for GULP :

--------------------------------------------------------------------------------
  Task / Subroutine                                          Time (Seconds)
--------------------------------------------------------------------------------
  Calculation of real space energy and derivatives                0.0400
  Calculation of phonons                                         16.7170
  Calculation of scattering                                       0.0000
--------------------------------------------------------------------------------
  Total CPU time                                                 17.4091
--------------------------------------------------------------------------------


  Job Finished at 16:02.35 24th February   2013                               

