********************************************************************************
*                       GENERAL UTILITY LATTICE PROGRAM                        *
*                                 Julian Gale                                  *
*                      Nanochemistry Research Institute                        *
*                           Department of Chemistry                            *
*                    Curtin University, Western Australia                      *
********************************************************************************
* Version = 4.0.7 * Last modified =  14th December 2012                        *
********************************************************************************
*  single       - perform a single point run                                   *
*  phonon       - calculate phonons for final geometry                         *
*  eigenvectors - output phonon eigenvectors                                   *
********************************************************************************

  Job Started  at 23:26.18 20th May        2013                               

  Number of CPUs =     1


  Total number of configurations input =   1

********************************************************************************
*  Input for Configuration =   1                                               *
********************************************************************************

  Formula = Si8                                                         

  Number of irreducible atoms/shells =       8


  Total number atoms/shells =       8

  Dimensionality = 3               :  Bulk   



  Cartesian lattice vectors (Angstroms) :

        5.430000    0.000000    0.000000
        0.000000    5.430000    0.000000
        0.000000    0.000000    5.430000

  Cell parameters (Angstroms/Degrees):

  a =       5.4300    alpha =  90.0000
  b =       5.4300    beta  =  90.0000
  c =       5.4300    gamma =  90.0000

  Initial cell volume =         160.103007 Angs**3

  Temperature of configuration =  0.000     K 

  Pressure of configuration =         0.000 GPa 

  Fractional coordinates of asymmetric unit :

--------------------------------------------------------------------------------
   No.  Atomic       x           y          z         Charge      Occupancy
        Label      (Frac)      (Frac)     (Frac)        (e)         (Frac)  
--------------------------------------------------------------------------------
      1 Si1   c    0.000000    0.000000    0.000000     0.00000    1.000000    
      2 Si1   c    0.500000    0.500000    0.000000     0.00000    1.000000    
      3 Si1   c    0.250000    0.250000    0.250000     0.00000    1.000000    
      4 Si1   c    0.750000    0.750000    0.250000     0.00000    1.000000    
      5 Si1   c    0.500000    0.000000    0.500000     0.00000    1.000000    
      6 Si1   c    0.000000    0.500000    0.500000     0.00000    1.000000    
      7 Si1   c    0.750000    0.250000    0.750000     0.00000    1.000000    
      8 Si1   c    0.250000    0.750000    0.750000     0.00000    1.000000    
--------------------------------------------------------------------------------


  Brillouin zone sampling points :

--------------------------------------------------------------------------------
  Point number          x          y          z            Weight
--------------------------------------------------------------------------------
        1           0.000000   0.000000   0.000000         1.0000
--------------------------------------------------------------------------------


********************************************************************************
*  General input information                                                   *
********************************************************************************

  Species output for all configurations : 

--------------------------------------------------------------------------------
  Species    Type    Atomic    Atomic    Charge       Radii (Angs)     Library
                     Number     Mass       (e)     Cova   Ionic  VDW   Symbol
--------------------------------------------------------------------------------
    Si1      Core       14      28.09   0.000000   1.200  0.000  2.100          
--------------------------------------------------------------------------------


  Lattice summation method               =    Ewald          (3-D)
                                         =    Parry          (2-D)
                                         =    Saunders et al (1-D)
  Accuracy factor for lattice sums       =   12.000


  Time limit = Infinity

  Maximum range for interatomic potentials =    100000.000000 Angstroms

  General interatomic potentials :

--------------------------------------------------------------------------------
Atom  Types   Potential         A         B         C         D     Cutoffs(Ang)
  1     2                                                            Min    Max 
--------------------------------------------------------------------------------
Si1  c Si1  c Still-Weber 2  15.3      2.10      11.6      0.00     0.000  3.771
--------------------------------------------------------------------------------

  General Three-body potentials :

  Stillinger-Weber form:

--------------------------------------------------------------------------------
       Atom Types        Force Cst    Theta      Rhos           Cutoffs  
   1       2       3        (eV)                (Angs)     1-2    1-3    2-3  
--------------------------------------------------------------------------------
Si1   c Si1   c Si1   c   45.51      109.471 2.514 2.514  0.000  0.000  0.000
                                                          3.771  3.771  6.158
--------------------------------------------------------------------------------

********************************************************************************
*  Output for configuration   1                                                *
********************************************************************************


  Components of energy : 

--------------------------------------------------------------------------------
  Interatomic potentials     =         -34.67657720 eV
  Three-body potentials      =           0.00000000 eV
  Monopole - monopole (real) =           0.00000000 eV
  Monopole - monopole (recip)=           0.00000000 eV
  Monopole - monopole (total)=           0.00000000 eV
--------------------------------------------------------------------------------
  Total lattice energy       =         -34.67657720 eV
--------------------------------------------------------------------------------
  Total lattice energy       =           -3345.7596 kJ/(mole unit cells)
--------------------------------------------------------------------------------


  Elastic Constant Matrix: (Units=GPa)

-------------------------------------------------------------------------------
  Indices      1         2         3         4         5         6    
-------------------------------------------------------------------------------
       1    151.4644   76.4840   76.4840    0.0000    0.0000    0.0000
       2     76.4840  151.4644   76.4840    0.0000    0.0000    0.0000
       3     76.4840   76.4840  151.4644    0.0000    0.0000    0.0000
       4      0.0000    0.0000    0.0000   56.4351   -0.0000    0.0000
       5      0.0000    0.0000    0.0000   -0.0000   56.4351   -0.0000
       6      0.0000    0.0000    0.0000    0.0000   -0.0000   56.4351
-------------------------------------------------------------------------------


  Elastic Compliance Matrix: (Units=1/GPa)

-------------------------------------------------------------------------------
  Indices      1         2         3         4         5         6    
-------------------------------------------------------------------------------
       1    0.009986 -0.003351 -0.003351  0.000000 -0.000000 -0.000000
       2   -0.003351  0.009986 -0.003351 -0.000000  0.000000 -0.000000
       3   -0.003351 -0.003351  0.009986 -0.000000 -0.000000  0.000000
       4    0.000000 -0.000000 -0.000000  0.017719  0.000000 -0.000000
       5   -0.000000  0.000000 -0.000000  0.000000  0.017719  0.000000
       6   -0.000000 -0.000000  0.000000 -0.000000  0.000000  0.017719
-------------------------------------------------------------------------------

  Mechanical properties :

-------------------------------------------------------------------------------
  Convention :                    Reuss         Voigt         Hill
-------------------------------------------------------------------------------
  Bulk  Modulus (GPa)     =     101.47747     101.47747     101.47747
  Shear Modulus (GPa)     =      46.94589      48.85717      47.90153
-------------------------------------------------------------------------------
  Velocity S-wave (km/s)  =       4.48833       4.57878       4.53378
  Velocity P-wave (km/s)  =       8.39079       8.45570       8.42331
-------------------------------------------------------------------------------
  Compressibility (1/GPa) =    0.00985440
-------------------------------------------------------------------------------
  Stress axis :                     x             y             z
-------------------------------------------------------------------------------
  Youngs Moduli (GPa)     =     100.13880     100.13880     100.13880
-------------------------------------------------------------------------------
  Poissons Ratio (x)      =                     0.33553       0.33553
  Poissons Ratio (y)      =       0.33553                     0.33553
  Poissons Ratio (z)      =       0.33553       0.33553
-------------------------------------------------------------------------------


  Piezoelectric Strain Matrix: (Units=C/m**2)

-------------------------------------------------------------------------------
  Indices      1         2         3         4         5         6    
-------------------------------------------------------------------------------
       x    -0.00000  -0.00000  -0.00000  -0.00000  -0.00000  -0.00000
       y    -0.00000  -0.00000  -0.00000  -0.00000  -0.00000  -0.00000
       z    -0.00000  -0.00000  -0.00000  -0.00000  -0.00000  -0.00000
-------------------------------------------------------------------------------


  Piezoelectric Stress Matrix: (Units=10**-11 C/N)

-------------------------------------------------------------------------------
  Indices      1         2         3         4         5         6    
-------------------------------------------------------------------------------
       x     0.00000   0.00000   0.00000   0.00000   0.00000   0.00000
       y     0.00000   0.00000   0.00000   0.00000   0.00000   0.00000
       z     0.00000   0.00000   0.00000   0.00000   0.00000   0.00000
-------------------------------------------------------------------------------


  Static dielectric constant tensor : 

-------------------------------------------------------------------------------
              x         y         z
-------------------------------------------------------------------------------
       x     1.00000   0.00000   0.00000
       y     0.00000   1.00000   0.00000
       z     0.00000   0.00000   1.00000
--------------------------------------------------------------------------------

  Static refractive indices : 

-------------------------------------------------------------------------------
    1 =    1.00000      2 =    1.00000      3 =    1.00000
-------------------------------------------------------------------------------


  Phonon Calculation : 

  K direction for n-a correction at gamma =  1.00000  1.00000  1.00000

  Number of k points for this configuration =        1

--------------------------------------------------------------------------------
  K point      1 =   0.000000  0.000000  0.000000  Weight =    1.000
--------------------------------------------------------------------------------

 Frequencies (cm-1) and Eigenvectors : 

 Frequency      -0.0000    0.0000    0.0000  221.8294  221.8294  221.8294
 IR Intensity    0.0000    0.0000    0.0000    0.0000    0.0000    0.0000
    in X         0.0000    0.0000    0.0000    0.0000    0.0000    0.0000
    in Y         0.0000    0.0000    0.0000    0.0000    0.0000    0.0000
    in Z         0.0000    0.0000    0.0000    0.0000    0.0000    0.0000
 Raman Intsty    0.0000    0.0000    0.0000    0.0000    0.0000    0.0000

     1 x      -0.329918  0.126635 -0.010829 -0.221340  0.031174  0.095155
     1 y      -0.127063 -0.329331  0.019908 -0.201407  0.101626  0.140321
     1 z      -0.002957  0.022469  0.352826 -0.023045  0.233373 -0.358283
     2 x      -0.329918  0.126635 -0.010829  0.127414 -0.247273  0.117460
     2 y      -0.127063 -0.329331  0.019908  0.164940 -0.202813 -0.215541
     2 z      -0.002957  0.022469  0.352826  0.023045 -0.233373  0.358283
     3 x      -0.329918  0.126635 -0.010829  0.140885  0.209236 -0.126427
     3 y      -0.127063 -0.329331  0.019908 -0.229126 -0.134506 -0.163158
     3 z      -0.002957  0.022469  0.352826 -0.357551  0.291443  0.166779
     4 x      -0.329918  0.126635 -0.010829 -0.177352 -0.310424  0.051207
     4 y      -0.127063 -0.329331  0.019908  0.135201 -0.081593  0.375774
     4 z      -0.002957  0.022469  0.352826  0.357551 -0.291443 -0.166779
     5 x      -0.329918  0.126635 -0.010829 -0.127414  0.247273 -0.117460
     5 y      -0.127063 -0.329331  0.019908  0.201407 -0.101626 -0.140321
     5 z      -0.002957  0.022469  0.352826  0.341282  0.286286  0.180649
     6 x      -0.329918  0.126635 -0.010829  0.221340 -0.031174 -0.095155
     6 y      -0.127063 -0.329331  0.019908 -0.164940  0.202813  0.215541
     6 z      -0.002957  0.022469  0.352826 -0.341282 -0.286286 -0.180649
     7 x      -0.329918  0.126635 -0.010829  0.177352  0.310424 -0.051207
     7 y      -0.127063 -0.329331  0.019908  0.229126  0.134506  0.163158
     7 z      -0.002957  0.022469  0.352826  0.008797 -0.012996 -0.189084
     8 x      -0.329918  0.126635 -0.010829 -0.140885 -0.209236  0.126427
     8 y      -0.127063 -0.329331  0.019908 -0.135201  0.081593 -0.375774
     8 z      -0.002957  0.022469  0.352826 -0.008797  0.012996  0.189084


 Frequency     221.8294  221.8294  221.8294  433.5053  433.5053  433.5053
 IR Intensity    0.0000    0.0000    0.0000    0.0000    0.0000    0.0000
    in X         0.0000    0.0000    0.0000    0.0000    0.0000    0.0000
    in Y         0.0000    0.0000    0.0000    0.0000    0.0000    0.0000
    in Z         0.0000    0.0000    0.0000    0.0000    0.0000    0.0000
 Raman Intsty    0.0000    0.0000    0.0000    0.0000    0.0000    0.0000

     1 x       0.330221  0.282292 -0.047406  0.127926 -0.247429 -0.014689
     1 y      -0.154057 -0.100311 -0.381603 -0.027231  0.271264 -0.378677
     1 z      -0.127493  0.215553 -0.062624  0.271210  0.168249  0.038281
     2 x      -0.214691  0.323915 -0.088383 -0.127926  0.247429  0.014689
     2 y       0.216131 -0.076715 -0.287412  0.027231 -0.271264  0.378677
     2 z       0.127493 -0.215553  0.062624  0.271210  0.168249  0.038281
     3 x       0.012459  0.046555 -0.409958 -0.239576  0.240873  0.284475
     3 y      -0.051150  0.383588 -0.055069 -0.267123 -0.165105 -0.123360
     3 z       0.087362 -0.032609 -0.026607 -0.174893 -0.040096 -0.093693
     4 x       0.049615 -0.223582 -0.259058  0.239576 -0.240873 -0.284475
     4 y       0.166681  0.222619 -0.080720  0.267123  0.165105  0.123360
     4 z      -0.087362  0.032609  0.026607 -0.174893 -0.040096 -0.093693
     5 x       0.214691 -0.323915  0.088383 -0.127926  0.247429  0.014689
     5 y       0.154057  0.100311  0.381603 -0.027231  0.271264 -0.378677
     5 z       0.090338  0.054584 -0.088276 -0.271210 -0.168249 -0.038281
     6 x      -0.330221 -0.282292  0.047406  0.127926 -0.247429 -0.014689
     6 y      -0.216131  0.076715  0.287412  0.027231 -0.271264  0.378677
     6 z      -0.090338 -0.054584  0.088276 -0.271210 -0.168249 -0.038281
     7 x      -0.049615  0.223582  0.259058  0.239576 -0.240873 -0.284475
     7 y       0.051150 -0.383588  0.055069 -0.267123 -0.165105 -0.123360
     7 z       0.457550 -0.009013  0.067584  0.174893  0.040096  0.093693
     8 x      -0.012459 -0.046555  0.409958 -0.239576  0.240873  0.284475
     8 y      -0.166681 -0.222619  0.080720  0.267123  0.165105  0.123360
     8 z      -0.457550  0.009013 -0.067584  0.174893  0.040096  0.093693


 Frequency     433.5053  433.5053  433.5053  521.4312  521.4312  521.4312
 IR Intensity    0.0000    0.0000    0.0000    0.0000    0.0000    0.0000
    in X         0.0000    0.0000    0.0000    0.0000    0.0000    0.0000
    in Y         0.0000    0.0000    0.0000    0.0000    0.0000    0.0000
    in Z         0.0000    0.0000    0.0000    0.0000    0.0000    0.0000
 Raman Intsty    0.0000    0.0000    0.0000    0.0000    0.0000    0.0000

     1 x      -0.025170 -0.091570  0.403955  0.089323  0.374229 -0.208851
     1 y       0.064720  0.009974  0.167301  0.035926  0.110594 -0.104712
     1 z      -0.132879 -0.352379 -0.069598  0.356657 -0.179936 -0.243859
     2 x       0.025170  0.091570 -0.403955  0.051321  0.217127  0.039870
     2 y      -0.064720 -0.009974 -0.167301  0.201746 -0.072187  0.056462
     2 z      -0.132879 -0.352379 -0.069598 -0.356657  0.179936  0.243859
     3 x       0.011067 -0.085142  0.215142 -0.429633  0.013778 -0.035034
     3 y       0.135800 -0.331702 -0.087752 -0.116182 -0.148723  0.387508
     3 z      -0.457118  0.008284  0.000815  0.063909 -0.169942  0.204948
     4 x      -0.011067  0.085142 -0.215142  0.191961 -0.052186  0.083284
     4 y      -0.135800  0.331702  0.087752 -0.024461 -0.442632 -0.218527
     4 z      -0.457118  0.008284  0.000815 -0.063909  0.169942 -0.204948
     5 x       0.025170  0.091570 -0.403955 -0.051321 -0.217127 -0.039870
     5 y       0.064720  0.009974  0.167301 -0.035926 -0.110594  0.104712
     5 z       0.132879  0.352379  0.069598  0.264936  0.113973  0.362177
     6 x      -0.025170 -0.091570  0.403955 -0.089323 -0.374229  0.208851
     6 y      -0.064720 -0.009974 -0.167301 -0.201746  0.072187 -0.056462
     6 z       0.132879  0.352379  0.069598 -0.264936 -0.113973 -0.362177
     7 x      -0.011067  0.085142 -0.215142 -0.191961  0.052186 -0.083284
     7 y       0.135800 -0.331702 -0.087752  0.116182  0.148723 -0.387508
     7 z       0.457118 -0.008284 -0.000815 -0.101911  0.012840  0.043774
     8 x       0.011067 -0.085142  0.215142  0.429633 -0.013778  0.035034
     8 y      -0.135800  0.331702  0.087752  0.024461  0.442632  0.218527
     8 z       0.457118 -0.008284 -0.000815  0.101911 -0.012840 -0.043774


 Frequency     521.4312  521.4312  521.4312  594.9384  594.9384  594.9384
 IR Intensity    0.0000    0.0000    0.0000    0.0000    0.0000    0.0000
    in X         0.0000    0.0000    0.0000    0.0000    0.0000    0.0000
    in Y         0.0000    0.0000    0.0000    0.0000    0.0000    0.0000
    in Z         0.0000    0.0000    0.0000    0.0000    0.0000    0.0000
 Raman Intsty    0.0000    0.0000    0.0000    0.0000    0.0000    0.0000

     1 x       0.229193  0.036250 -0.067174  0.002854 -0.352611 -0.025632
     1 y      -0.270890  0.312266  0.233714  0.014726  0.025730 -0.352308
     1 z      -0.100788 -0.043651 -0.137433 -0.353235 -0.001777 -0.014894
     2 x      -0.258685 -0.353933  0.080288  0.002854 -0.352611 -0.025632
     2 y       0.215973 -0.079262  0.384672  0.014726  0.025730 -0.352308
     2 z       0.100788  0.043651  0.137433 -0.353235 -0.001777 -0.014894
     3 x       0.087457 -0.161234 -0.174222 -0.002854  0.352611  0.025632
     3 y       0.055536  0.247224 -0.004094 -0.014726 -0.025730  0.352308
     3 z      -0.000507 -0.390855  0.149210  0.353235  0.001777  0.014894
     4 x      -0.032540 -0.071771 -0.444164 -0.002854  0.352611  0.025632
     4 y      -0.026044  0.070459 -0.009019 -0.014726 -0.025730  0.352308
     4 z       0.000507  0.390855 -0.149210  0.353235  0.001777  0.014894
     5 x       0.258685  0.353933 -0.080288  0.002854 -0.352611 -0.025632
     5 y       0.270890 -0.312266 -0.233714  0.014726  0.025730 -0.352308
     5 z      -0.019208  0.133114 -0.132509 -0.353235 -0.001777 -0.014894
     6 x      -0.229193 -0.036250  0.067174  0.002854 -0.352611 -0.025632
     6 y      -0.215973  0.079262 -0.384672  0.014726  0.025730 -0.352308
     6 z       0.019208 -0.133114  0.132509 -0.353235 -0.001777 -0.014894
     7 x       0.032540  0.071771  0.444164 -0.002854  0.352611  0.025632
     7 y      -0.055536 -0.247224  0.004094 -0.014726 -0.025730  0.352308
     7 z      -0.487370  0.000672 -0.001748  0.353235  0.001777  0.014894
     8 x      -0.087457  0.161234  0.174222 -0.002854  0.352611  0.025632
     8 y       0.026044 -0.070459  0.009019 -0.014726 -0.025730  0.352308
     8 z       0.487370 -0.000672  0.001748  0.353235  0.001777  0.014894




--------------------------------------------------------------------------------
  Phonon properties (per mole of unit cells): Temperature =      0.000 K
--------------------------------------------------------------------------------
  Zero point energy            =        0.548349 eV
--------------------------------------------------------------------------------

  Time to end of properties =       0.0120 seconds


  Peak dynamic memory used =       0.49 MB 


  Timing analysis for GULP :

--------------------------------------------------------------------------------
  Task / Subroutine                                          Time (Seconds)
--------------------------------------------------------------------------------
--------------------------------------------------------------------------------
  Total CPU time                                                  0.0120
--------------------------------------------------------------------------------


  Job Finished at 23:26.18 20th May        2013                               

