********************************************************************************
*                       GENERAL UTILITY LATTICE PROGRAM                        *
*                                 Julian Gale                                  *
*                      Nanochemistry Research Institute                        *
*                           Department of Chemistry                            *
*                    Curtin University, Western Australia                      *
********************************************************************************
* Version = 4.1.0 * Last modified =  13th June 2013                            *
********************************************************************************
*  single       - perform a single point run                                   *
*  phonon       - calculate phonons for final geometry                         *
*  thermal      - calculate thermal conductivity for final geometry            *
********************************************************************************

  Job Started  at 16:40.50 30th June       2013                               

  Number of CPUs =     1

  Host name      = gilgamesh.cheme.cmu.edu                 


  Total number of configurations input =   1

********************************************************************************
*  Input for Configuration =   1                                               *
********************************************************************************

  Formula = Ar256                                                       

  Number of irreducible atoms/shells =     256


  Total number atoms/shells =     256

  Dimensionality = 3               :  Bulk   



  Cartesian lattice vectors (Angstroms) :

       21.483900    0.000000    0.000000
        0.000000   21.483900    0.000000
        0.000000    0.000000   21.483900

  Cell parameters (Angstroms/Degrees):

  a =      21.4839    alpha =  90.0000
  b =      21.4839    beta  =  90.0000
  c =      21.4839    gamma =  90.0000

  Initial cell volume =        9916.065040 Angs**3

  Temperature of configuration =  1000.     K 

  Pressure of configuration =         0.000 GPa 

  Fractional coordinates of asymmetric unit :

--------------------------------------------------------------------------------
   No.  Atomic       x           y          z         Charge      Occupancy
        Label      (Frac)      (Frac)     (Frac)        (e)         (Frac)  
--------------------------------------------------------------------------------
      1 Ar    c    0.498420    0.342613    0.995727     0.00000    1.000000    
      2 Ar    c    0.819032    0.630435    0.617365     0.00000    1.000000    
      3 Ar    c    0.643919    0.102986    0.041318     0.00000    1.000000    
      4 Ar    c    0.978398    0.073293    0.727684     0.00000    1.000000    
      5 Ar    c    0.700227    0.132449    0.200386     0.00000    1.000000    
      6 Ar    c    0.790117    0.538170    0.479568     0.00000    1.000000    
      7 Ar    c    0.676665    0.535955    0.356698     0.00000    1.000000    
      8 Ar    c    0.646405    0.849832    0.942096     0.00000    1.000000    
      9 Ar    c    0.107862    0.300388    0.268103     0.00000    1.000000    
     10 Ar    c    0.187631    0.550328    0.853076     0.00000    1.000000    
     11 Ar    c    0.851493    0.398066    0.170143     0.00000    1.000000    
     12 Ar    c    0.473396    0.074905    0.516666     0.00000    1.000000    
     13 Ar    c    0.968902    0.547936    0.309236     0.00000    1.000000    
     14 Ar    c    0.589004    0.957415    0.478824     0.00000    1.000000    
     15 Ar    c    0.939545    0.860672    0.110589     0.00000    1.000000    
     16 Ar    c    0.479173    0.407309    0.834620     0.00000    1.000000    
     17 Ar    c    0.866654    0.944405    0.364848     0.00000    1.000000    
     18 Ar    c    0.458981    0.088899    0.343327     0.00000    1.000000    
     19 Ar    c    0.807498    0.490377    0.886734     0.00000    1.000000    
     20 Ar    c    0.350193    0.427091    0.967385     0.00000    1.000000    
     21 Ar    c    0.237545    0.126725    0.926666     0.00000    1.000000    
     22 Ar    c    0.280481    0.732800    0.570045     0.00000    1.000000    
     23 Ar    c    0.924432    0.215421    0.872523     0.00000    1.000000    
     24 Ar    c    0.568970    0.077532    0.813684     0.00000    1.000000    
     25 Ar    c    0.686714    0.366573    0.264418     0.00000    1.000000    
     26 Ar    c    0.722890    0.334953    0.697648     0.00000    1.000000    
     27 Ar    c    0.774687    0.739335    0.937218     0.00000    1.000000    
     28 Ar    c    0.939862    0.031460    0.044624     0.00000    1.000000    
     29 Ar    c    0.601474    0.564474    0.060838     0.00000    1.000000    
     30 Ar    c    0.242228    0.320063    0.385470     0.00000    1.000000    
     31 Ar    c    0.126239    0.149847    0.333813     0.00000    1.000000    
     32 Ar    c    0.395487    0.628270    0.651088     0.00000    1.000000    
     33 Ar    c    0.576567    0.652987    0.209138     0.00000    1.000000    
     34 Ar    c    0.942571    0.029297    0.552176     0.00000    1.000000    
     35 Ar    c    0.812846    0.647862    0.792319     0.00000    1.000000    
     36 Ar    c    0.193091    0.817687    0.014319     0.00000    1.000000    
     37 Ar    c    0.354512    0.331788    0.104515     0.00000    1.000000    
     38 Ar    c    0.105055    0.989048    0.297683     0.00000    1.000000    
     39 Ar    c    0.562989    0.490474    0.477385     0.00000    1.000000    
     40 Ar    c    0.390280    0.687110    0.815062     0.00000    1.000000    
     41 Ar    c    0.682106    0.767631    0.636751     0.00000    1.000000    
     42 Ar    c    0.965388    0.377129    0.305644     0.00000    1.000000    
     43 Ar    c    0.258182    0.899585    0.510904     0.00000    1.000000    
     44 Ar    c    0.534344    0.535717    0.635755     0.00000    1.000000    
     45 Ar    c    0.961781    0.933992    0.831376     0.00000    1.000000    
     46 Ar    c    0.252232    0.182899    0.633316     0.00000    1.000000    
     47 Ar    c    0.446795    0.111637    0.051183     0.00000    1.000000    
     48 Ar    c    0.428311    0.460261    0.368806     0.00000    1.000000    
     49 Ar    c    0.418244    0.562053    0.233605     0.00000    1.000000    
     50 Ar    c    0.840159    0.890188    0.527428     0.00000    1.000000    
     51 Ar    c    0.654727    0.624598    0.531700     0.00000    1.000000    
     52 Ar    c    0.505681    0.805547    0.178151     0.00000    1.000000    
     53 Ar    c    0.025033    0.210325    0.470012     0.00000    1.000000    
     54 Ar    c    0.122766    0.072180    0.037809     0.00000    1.000000    
     55 Ar    c    0.267947    0.680207    0.114213     0.00000    1.000000    
     56 Ar    c    0.619455    0.936208    0.106645     0.00000    1.000000    
     57 Ar    c    0.363899    0.220406    0.505872     0.00000    1.000000    
     58 Ar    c    0.928961    0.627256    0.470231     0.00000    1.000000    
     59 Ar    c    0.117632    0.965248    0.764228     0.00000    1.000000    
     60 Ar    c    0.657232    0.747676    0.806627     0.00000    1.000000    
     61 Ar    c    0.450861    0.956367    0.110502     0.00000    1.000000    
     62 Ar    c    0.202760    0.679783    0.423071     0.00000    1.000000    
     63 Ar    c    0.926173    0.191413    0.610876     0.00000    1.000000    
     64 Ar    c    0.523075    0.608930    0.361841     0.00000    1.000000    
     65 Ar    c    0.820093    0.633619    0.335602     0.00000    1.000000    
     66 Ar    c    0.086279    0.367382    0.429321     0.00000    1.000000    
     67 Ar    c    0.910966    0.478084    0.028333     0.00000    1.000000    
     68 Ar    c    0.599812    0.787636    0.492215     0.00000    1.000000    
     69 Ar    c    0.612854    0.391340    0.113324     0.00000    1.000000    
     70 Ar    c    0.774073    0.734015    0.493369     0.00000    1.000000    
     71 Ar    c    0.877634    0.309980    0.016574     0.00000    1.000000    
     72 Ar    c    0.025771    0.237403    0.736519     0.00000    1.000000    
     73 Ar    c    0.869535    0.154522    0.157049     0.00000    1.000000    
     74 Ar    c    0.311009    0.598802    0.968618     0.00000    1.000000    
     75 Ar    c    0.758833    0.841868    0.084146     0.00000    1.000000    
     76 Ar    c    0.629090    0.079294    0.355843     0.00000    1.000000    
     77 Ar    c    0.307970    0.511523    0.116477     0.00000    1.000000    
     78 Ar    c    0.426141    0.806483    0.521460     0.00000    1.000000    
     79 Ar    c    0.822909    0.461528    0.322751     0.00000    1.000000    
     80 Ar    c    0.355969    0.046062    0.213793     0.00000    1.000000    
     81 Ar    c    0.136875    0.465390    0.288123     0.00000    1.000000    
     82 Ar    c    0.492722    0.655966    0.518756     0.00000    1.000000    
     83 Ar    c    0.225439    0.021572    0.632511     0.00000    1.000000    
     84 Ar    c    0.195512    0.186523    0.477972     0.00000    1.000000    
     85 Ar    c    0.420380    0.196510    0.204060     0.00000    1.000000    
     86 Ar    c    0.303982    0.854323    0.824776     0.00000    1.000000    
     87 Ar    c    0.863046    0.897560    0.963382     0.00000    1.000000    
     88 Ar    c    0.044296    0.729774    0.406486     0.00000    1.000000    
     89 Ar    c    0.540484    0.364041    0.680384     0.00000    1.000000    
     90 Ar    c    0.037344    0.073664    0.891007     0.00000    1.000000    
     91 Ar    c    0.564395    0.037349    0.652624     0.00000    1.000000    
     92 Ar    c    0.985664    0.059130    0.388745     0.00000    1.000000    
     93 Ar    c    0.541764    0.989588    0.956735     0.00000    1.000000    
     94 Ar    c    0.723002    0.389457    0.436365     0.00000    1.000000    
     95 Ar    c    0.919670    0.771936    0.840872     0.00000    1.000000    
     96 Ar    c    0.828653    0.402783    0.572801     0.00000    1.000000    
     97 Ar    c    0.753611    0.423768    0.033878     0.00000    1.000000    
     98 Ar    c    0.124281    0.798398    0.543030     0.00000    1.000000    
     99 Ar    c    0.674133    0.597042    0.886436     0.00000    1.000000    
    100 Ar    c    0.664777    0.704407    0.356998     0.00000    1.000000    
    101 Ar    c    0.150524    0.557985    0.142630     0.00000    1.000000    
    102 Ar    c    0.269624    0.980078    0.352520     0.00000    1.000000    
    103 Ar    c    0.224837    0.306071    0.985505     0.00000    1.000000    
    104 Ar    c    0.907563    0.625198    0.935556     0.00000    1.000000    
    105 Ar    c    0.375720    0.243717    0.941905     0.00000    1.000000    
    106 Ar    c    0.950749    0.517122    0.619250     0.00000    1.000000    
    107 Ar    c    0.237118    0.569254    0.562891     0.00000    1.000000    
    108 Ar    c    0.079271    0.948869    0.601190     0.00000    1.000000    
    109 Ar    c    0.616289    0.303302    0.826805     0.00000    1.000000    
    110 Ar    c    0.966133    0.205197    0.311294     0.00000    1.000000    
    111 Ar    c    0.198234    0.959630    0.917818     0.00000    1.000000    
    112 Ar    c    0.915113    0.993400    0.213000     0.00000    1.000000    
    113 Ar    c    0.747597    0.681869    0.189324     0.00000    1.000000    
    114 Ar    c    0.672122    0.610876    0.703918     0.00000    1.000000    
    115 Ar    c    0.007133    0.898477    0.452270     0.00000    1.000000    
    116 Ar    c    0.803066    0.491438    0.716229     0.00000    1.000000    
    117 Ar    c    0.977527    0.286210    0.159429     0.00000    1.000000    
    118 Ar    c    0.380658    0.933280    0.948631     0.00000    1.000000    
    119 Ar    c    0.714805    0.513990    0.183120     0.00000    1.000000    
    120 Ar    c    0.134221    0.228492    0.109538     0.00000    1.000000    
    121 Ar    c    0.091989    0.551278    0.424606     0.00000    1.000000    
    122 Ar    c    0.508767    0.210246    0.610764     0.00000    1.000000    
    123 Ar    c    0.224141    0.453362    0.703820     0.00000    1.000000    
    124 Ar    c    0.539674    0.690084    0.929594     0.00000    1.000000    
    125 Ar    c    0.633223    0.731720    0.067855     0.00000    1.000000    
    126 Ar    c    0.726958    0.035330    0.757041     0.00000    1.000000    
    127 Ar    c    0.124176    0.732069    0.704737     0.00000    1.000000    
    128 Ar    c    0.953123    0.768231    0.554708     0.00000    1.000000    
    129 Ar    c    0.485457    0.823324    0.843944     0.00000    1.000000    
    130 Ar    c    0.670288    0.283029    0.984398     0.00000    1.000000    
    131 Ar    c    0.393952    0.517425    0.521809     0.00000    1.000000    
    132 Ar    c    0.554252    0.934607    0.300959     0.00000    1.000000    
    133 Ar    c    0.251409    0.629076    0.721196     0.00000    1.000000    
    134 Ar    c    0.229965    0.917138    0.201668     0.00000    1.000000    
    135 Ar    c    0.945448    0.462177    0.455419     0.00000    1.000000    
    136 Ar    c    0.258325    0.591108    0.272235     0.00000    1.000000    
    137 Ar    c    0.993260    0.186760    0.024047     0.00000    1.000000    
    138 Ar    c    0.541229    0.188612    0.935636     0.00000    1.000000    
    139 Ar    c    0.073281    0.640168    0.564334     0.00000    1.000000    
    140 Ar    c    0.660141    0.817673    0.230234     0.00000    1.000000    
    141 Ar    c    0.563762    0.360860    0.375483     0.00000    1.000000    
    142 Ar    c    0.705514    0.162942    0.868599     0.00000    1.000000    
    143 Ar    c    0.351982    0.525114    0.821978     0.00000    1.000000    
    144 Ar    c    0.889252    0.781273    0.387004     0.00000    1.000000    
    145 Ar    c    0.496060    0.780147    0.356777     0.00000    1.000000    
    146 Ar    c    0.043405    0.519957    0.939848     0.00000    1.000000    
    147 Ar    c    0.614106    0.913321    0.779658     0.00000    1.000000    
    148 Ar    c    0.077599    0.946793    0.140291     0.00000    1.000000    
    149 Ar    c    0.780403    0.010631    0.097161     0.00000    1.000000    
    150 Ar    c    0.618123    0.444246    0.938391     0.00000    1.000000    
    151 Ar    c    0.578242    0.223413    0.277822     0.00000    1.000000    
    152 Ar    c    0.421995    0.941682    0.424464     0.00000    1.000000    
    153 Ar    c    0.136881    0.297525    0.586393     0.00000    1.000000    
    154 Ar    c    0.094979    0.563571    0.711496     0.00000    1.000000    
    155 Ar    c    0.943739    0.705370    0.233747     0.00000    1.000000    
    156 Ar    c    0.107668    0.463918    0.569082     0.00000    1.000000    
    157 Ar    c    0.257233    0.491121    0.411756     0.00000    1.000000    
    158 Ar    c    0.262168    0.253925    0.225946     0.00000    1.000000    
    159 Ar    c    0.134624    0.393667    0.865685     0.00000    1.000000    
    160 Ar    c    0.355305    0.760258    0.961925     0.00000    1.000000    
    161 Ar    c    0.342565    0.830492    0.111607     0.00000    1.000000    
    162 Ar    c    0.446699    0.963317    0.764479     0.00000    1.000000    
    163 Ar    c    0.891374    0.342993    0.723207     0.00000    1.000000    
    164 Ar    c    0.471991    0.539488    0.949958     0.00000    1.000000    
    165 Ar    c    0.185762    0.386243    0.142065     0.00000    1.000000    
    166 Ar    c    0.223191    0.714284    0.863568     0.00000    1.000000    
    167 Ar    c    0.017315    0.455513    0.161991     0.00000    1.000000    
    168 Ar    c    0.098596    0.232402    0.896676     0.00000    1.000000    
    169 Ar    c    0.538934    0.871955    0.631450     0.00000    1.000000    
    170 Ar    c    0.766444    0.592029    0.032696     0.00000    1.000000    
    171 Ar    c    0.650994    0.182092    0.698756     0.00000    1.000000    
    172 Ar    c    0.280987    0.002434    0.063624     0.00000    1.000000    
    173 Ar    c    0.097884    0.824459    0.850558     0.00000    1.000000    
    174 Ar    c    0.818762    0.187567    0.742295     0.00000    1.000000    
    175 Ar    c    0.717351    0.000000    0.929813     0.00000    1.000000    
    176 Ar    c    0.156411    0.853895    0.382336     0.00000    1.000000    
    177 Ar    c    0.411360    0.087033    0.882777     0.00000    1.000000    
    178 Ar    c    0.679560    0.467224    0.598453     0.00000    1.000000    
    179 Ar    c    0.707842    0.223793    0.400694     0.00000    1.000000    
    180 Ar    c    0.475994    0.224109    0.781604     0.00000    1.000000    
    181 Ar    c    0.050359    0.403463    0.719837     0.00000    1.000000    
    182 Ar    c    0.310455    0.191381    0.792305     0.00000    1.000000    
    183 Ar    c    0.877527    0.309268    0.436112     0.00000    1.000000    
    184 Ar    c    0.819888    0.271017    0.280243     0.00000    1.000000    
    185 Ar    c    0.723793    0.971942    0.255017     0.00000    1.000000    
    186 Ar    c    0.532869    0.712780    0.692393     0.00000    1.000000    
    187 Ar    c    0.088560    0.125291    0.604751     0.00000    1.000000    
    188 Ar    c    0.859830    0.060358    0.863172     0.00000    1.000000    
    189 Ar    c    0.404442    0.286843    0.352995     0.00000    1.000000    
    190 Ar    c    0.397275    0.103689    0.676251     0.00000    1.000000    
    191 Ar    c    0.700436    0.936189    0.615228     0.00000    1.000000    
    192 Ar    c    0.829319    0.833657    0.238558     0.00000    1.000000    
    193 Ar    c    0.445560    0.660820    0.083554     0.00000    1.000000    
    194 Ar    c    0.949311    0.529420    0.794628     0.00000    1.000000    
    195 Ar    c    0.300374    0.148260    0.347819     0.00000    1.000000    
    196 Ar    c    0.871909    0.564758    0.173118     0.00000    1.000000    
    197 Ar    c    0.786654    0.321834    0.862967     0.00000    1.000000    
    198 Ar    c    0.543286    0.071721    0.192996     0.00000    1.000000    
    199 Ar    c    0.388745    0.802731    0.688990     0.00000    1.000000    
    200 Ar    c    0.498466    0.828388    0.015367     0.00000    1.000000    
    201 Ar    c    0.749319    0.018488    0.457619     0.00000    1.000000    
    202 Ar    c    0.045534    0.920810    0.978575     0.00000    1.000000    
    203 Ar    c    0.457318    0.359895    0.521525     0.00000    1.000000    
    204 Ar    c    0.145749    0.648905    0.997230     0.00000    1.000000    
    205 Ar    c    0.777997    0.876289    0.818180     0.00000    1.000000    
    206 Ar    c    0.644618    0.462857    0.774659     0.00000    1.000000    
    207 Ar    c    0.198125    0.089048    0.194150     0.00000    1.000000    
    208 Ar    c    0.309505    0.061619    0.494938     0.00000    1.000000    
    209 Ar    c    0.820503    0.100244    0.311468     0.00000    1.000000    
    210 Ar    c    0.563510    0.486485    0.248576     0.00000    1.000000    
    211 Ar    c    0.191318    0.475249    0.001778     0.00000    1.000000    
    212 Ar    c    0.184197    0.291606    0.744795     0.00000    1.000000    
    213 Ar    c    0.870340    0.714772    0.078013     0.00000    1.000000    
    214 Ar    c    0.521302    0.578084    0.796164     0.00000    1.000000    
    215 Ar    c    0.560201    0.230756    0.110299     0.00000    1.000000    
    216 Ar    c    0.393050    0.455783    0.677931     0.00000    1.000000    
    217 Ar    c    0.371353    0.293236    0.666173     0.00000    1.000000    
    218 Ar    c    0.478637    0.351111    0.218254     0.00000    1.000000    
    219 Ar    c    0.310884    0.416521    0.257248     0.00000    1.000000    
    220 Ar    c    0.838498    0.787571    0.683833     0.00000    1.000000    
    221 Ar    c    0.745679    0.274182    0.128309     0.00000    1.000000    
    222 Ar    c    0.860323    0.146720    0.462303     0.00000    1.000000    
    223 Ar    c    0.378680    0.720377    0.245680     0.00000    1.000000    
    224 Ar    c    0.962605    0.672043    0.700054     0.00000    1.000000    
    225 Ar    c    0.809443    0.153920    0.000000     0.00000    1.000000    
    226 Ar    c    0.006346    0.854831    0.279120     0.00000    1.000000    
    227 Ar    c    0.287238    0.019885    0.787255     0.00000    1.000000    
    228 Ar    c    0.055051    0.358883    0.020211     0.00000    1.000000    
    229 Ar    c    0.390343    0.891482    0.264987     0.00000    1.000000    
    230 Ar    c    0.005102    0.614833    0.085439     0.00000    1.000000    
    231 Ar    c    0.789629    0.083612    0.609042     0.00000    1.000000    
    232 Ar    c    0.957857    0.381639    0.878476     0.00000    1.000000    
    233 Ar    c    0.320488    0.800772    0.388935     0.00000    1.000000    
    234 Ar    c    0.098104    0.644757    0.273850     0.00000    1.000000    
    235 Ar    c    0.315962    0.358676    0.819604     0.00000    1.000000    
    236 Ar    c    0.140119    0.024057    0.463156     0.00000    1.000000    
    237 Ar    c    0.053887    0.661281    0.847155     0.00000    1.000000    
    238 Ar    c    0.216703    0.760272    0.256964     0.00000    1.000000    
    239 Ar    c    0.387811    0.951955    0.604387     0.00000    1.000000    
    240 Ar    c    0.363614    0.635215    0.402324     0.00000    1.000000    
    241 Ar    c    0.000000    0.841998    0.699831     0.00000    1.000000    
    242 Ar    c    0.981549    0.345018    0.573211     0.00000    1.000000    
    243 Ar    c    0.152349    0.126757    0.768073     0.00000    1.000000    
    244 Ar    c    0.864689    0.954012    0.689405     0.00000    1.000000    
    245 Ar    c    0.280734    0.384520    0.548397     0.00000    1.000000    
    246 Ar    c    0.643175    0.128182    0.531477     0.00000    1.000000    
    247 Ar    c    0.225723    0.861082    0.675636     0.00000    1.000000    
    248 Ar    c    0.293504    0.172883    0.080046     0.00000    1.000000    
    249 Ar    c    0.010391    0.756934    0.986376     0.00000    1.000000    
    250 Ar    c    0.621335    0.313572    0.541494     0.00000    1.000000    
    251 Ar    c    0.529341    0.211496    0.439593     0.00000    1.000000    
    252 Ar    c    0.466214    0.471418    0.101119     0.00000    1.000000    
    253 Ar    c    0.086977    0.762804    0.142293     0.00000    1.000000    
    254 Ar    c    0.717021    0.864042    0.390249     0.00000    1.000000    
    255 Ar    c    0.032033    0.112601    0.184133     0.00000    1.000000    
    256 Ar    c    0.771019    0.244999    0.564665     0.00000    1.000000    
--------------------------------------------------------------------------------


  Brillouin zone sampling points :

--------------------------------------------------------------------------------
  Point number          x          y          z            Weight
--------------------------------------------------------------------------------
        1           0.000000   0.000000   0.000000         1.0000
--------------------------------------------------------------------------------


********************************************************************************
*  General input information                                                   *
********************************************************************************

  Species output for all configurations : 

--------------------------------------------------------------------------------
  Species    Type    Atomic    Atomic    Charge       Radii (Angs)     Library
                     Number     Mass       (e)     Cova   Ionic  VDW   Symbol
--------------------------------------------------------------------------------
    Ar       Core       18      39.95   0.000000   0.000  0.000  0.000          
--------------------------------------------------------------------------------


  Lattice summation method               =    Ewald          (3-D)
                                         =    Parry          (2-D)
                                         =    Saunders et al (1-D)
  Accuracy factor for lattice sums       =   12.000


  Time limit = Infinity

  Maximum range for interatomic potentials =    100000.000000 Angstroms

  General interatomic potentials :

--------------------------------------------------------------------------------
Atom  Types   Potential         A         B         C         D     Cutoffs(Ang)
  1     2                                                            Min    Max 
--------------------------------------------------------------------------------
Ar   c Ar   c Lennard 12  6 0.995E+05  64.4      0.00      0.00     0.000  8.500
--------------------------------------------------------------------------------

********************************************************************************
*  Output for configuration   1                                                *
********************************************************************************


  Components of energy : 

--------------------------------------------------------------------------------
  Interatomic potentials     =         -19.69423482 eV
  Monopole - monopole (real) =           0.00000000 eV
  Monopole - monopole (recip)=           0.00000000 eV
  Monopole - monopole (total)=           0.00000000 eV
--------------------------------------------------------------------------------
  Total lattice energy       =         -19.69423482 eV
--------------------------------------------------------------------------------
  Total lattice energy       =           -1900.1926 kJ/(mole unit cells)
--------------------------------------------------------------------------------


  Elastic Constant Matrix: (Units=GPa)

-------------------------------------------------------------------------------
  Indices      1         2         3         4         5         6    
-------------------------------------------------------------------------------
       1      3.3862    2.2967    1.9120   -0.1483    0.0528   -0.0623
       2      2.2967    3.7132    1.8664   -0.0649   -0.0715    0.2468
       3      1.9120    1.8664    3.4888    0.2074    0.0732    0.0729
       4     -0.1483   -0.0649    0.2074    0.5493   -0.0062   -0.0765
       5      0.0528   -0.0715    0.0732   -0.0062    0.6989    0.0830
       6     -0.0623    0.2468    0.0729   -0.0765    0.0830    0.6703
-------------------------------------------------------------------------------


  Elastic Compliance Matrix: (Units=1/GPa)

-------------------------------------------------------------------------------
  Indices      1         2         3         4         5         6    
-------------------------------------------------------------------------------
       1    0.628619 -0.300204 -0.201288  0.241064 -0.082083  0.228510
       2   -0.300204  0.530955 -0.116996 -0.004151  0.115988 -0.225497
       3   -0.201288 -0.116996  0.476711 -0.255806 -0.042875 -0.051343
       4    0.241064 -0.004151 -0.255806  2.021062 -0.007421  0.283261
       5   -0.082083  0.115988 -0.042875 -0.007421  1.480589 -0.229905
       6    0.228510 -0.225497 -0.051343  0.283261 -0.229905  1.662596
-------------------------------------------------------------------------------

  Mechanical properties :

-------------------------------------------------------------------------------
  Convention :                    Reuss         Voigt         Hill
-------------------------------------------------------------------------------
  Bulk  Modulus (GPa)     =       2.50432       2.52649       2.51540
  Shear Modulus (GPa)     =       0.61195       0.68457       0.64826
-------------------------------------------------------------------------------
  Velocity S-wave (km/s)  =       0.59775       0.63222       0.61523
  Velocity P-wave (km/s)  =       1.39235       1.41708       1.40477
-------------------------------------------------------------------------------
  Compressibility (1/GPa) =    0.39931061
-------------------------------------------------------------------------------
  Stress axis :                     x             y             z
-------------------------------------------------------------------------------
  Youngs Moduli (GPa)     =       1.59079       1.88340       2.09771
-------------------------------------------------------------------------------
  Poissons Ratio (x)      =                     0.56540       0.42224
  Poissons Ratio (y)      =       0.47756                     0.24542
  Poissons Ratio (z)      =       0.32021       0.22035
-------------------------------------------------------------------------------


  Piezoelectric Strain Matrix: (Units=C/m**2)

-------------------------------------------------------------------------------
  Indices      1         2         3         4         5         6    
-------------------------------------------------------------------------------
       x     0.00000   0.00000   0.00000   0.00000   0.00000   0.00000
       y     0.00000   0.00000   0.00000   0.00000   0.00000   0.00000
       z     0.00000   0.00000   0.00000   0.00000   0.00000   0.00000
-------------------------------------------------------------------------------


  Piezoelectric Stress Matrix: (Units=10**-11 C/N)

-------------------------------------------------------------------------------
  Indices      1         2         3         4         5         6    
-------------------------------------------------------------------------------
       x     0.00000   0.00000   0.00000   0.00000   0.00000   0.00000
       y     0.00000   0.00000   0.00000   0.00000   0.00000   0.00000
       z     0.00000   0.00000   0.00000   0.00000   0.00000   0.00000
-------------------------------------------------------------------------------


  Static dielectric constant tensor : 

-------------------------------------------------------------------------------
              x         y         z
-------------------------------------------------------------------------------
       x     1.00000   0.00000   0.00000
       y     0.00000   1.00000   0.00000
       z     0.00000   0.00000   1.00000
--------------------------------------------------------------------------------

  Static refractive indices : 

-------------------------------------------------------------------------------
    1 =    1.00000      2 =    1.00000      3 =    1.00000
-------------------------------------------------------------------------------


  Phonon Calculation : 

  Number of k points for this configuration =        1

--------------------------------------------------------------------------------
  K point      1 =   0.000000  0.000000  0.000000  Weight =    1.000
--------------------------------------------------------------------------------

 Frequencies (cm-1) : 

    0.00    0.00    0.00    3.25    5.19    5.46    5.71    6.02    6.41
    6.80    7.32    7.67    7.98    8.15    8.22    8.60    8.87    9.09
    9.23    9.36    9.45    9.67    9.89   10.01   10.19   10.39   10.47
   10.57   10.89   11.22   11.36   11.38   11.57   11.70   11.80   11.90
   11.97   12.10   12.30   12.50   12.68   12.75   12.89   13.05   13.10
   13.18   13.39   13.61   13.63   13.79   13.84   13.93   14.15   14.22
   14.29   14.40   14.57   14.61   14.79   14.85   14.94   15.06   15.14
   15.34   15.40   15.54   15.61   15.89   15.90   16.10   16.23   16.34
   16.44   16.48   16.57   16.82   17.00   17.04   17.08   17.15   17.28
   17.38   17.41   17.59   17.65   17.71   17.81   17.85   17.97   18.10
   18.21   18.27   18.39   18.42   18.60   18.66   18.74   18.93   19.06
   19.13   19.17   19.28   19.31   19.41   19.49   19.57   19.71   19.73
   19.79   19.94   20.00   20.10   20.20   20.22   20.36   20.52   20.58
   20.62   20.65   20.77   20.85   20.95   21.06   21.13   21.20   21.25
   21.32   21.52   21.58   21.64   21.66   21.80   21.87   21.97   22.08
   22.09   22.16   22.23   22.40   22.48   22.58   22.61   22.67   22.72
   22.86   22.90   23.05   23.10   23.15   23.16   23.28   23.38   23.44
   23.55   23.60   23.64   23.64   23.76   23.88   23.99   24.02   24.09
   24.18   24.29   24.33   24.42   24.46   24.58   24.68   24.72   24.78
   24.90   24.98   25.03   25.04   25.08   25.19   25.31   25.38   25.42
   25.49   25.53   25.63   25.70   25.84   25.97   26.00   26.20   26.21
   26.22   26.29   26.31   26.42   26.46   26.54   26.60   26.64   26.70
   26.87   26.91   26.99   27.04   27.12   27.21   27.23   27.35   27.44
   27.51   27.61   27.66   27.76   27.84   27.89   27.95   28.00   28.08
   28.14   28.19   28.20   28.29   28.38   28.46   28.55   28.59   28.63
   28.80   28.89   28.93   28.94   29.02   29.09   29.20   29.21   29.27
   29.37   29.40   29.57   29.66   29.73   29.77   29.90   29.92   29.97
   30.02   30.19   30.28   30.35   30.43   30.45   30.52   30.55   30.63
   30.72   30.81   30.90   30.90   30.99   31.06   31.09   31.16   31.26
   31.32   31.38   31.45   31.55   31.61   31.68   31.78   31.88   31.89
   31.98   32.00   32.10   32.14   32.21   32.27   32.44   32.48   32.51
   32.60   32.65   32.78   32.86   33.00   33.02   33.05   33.07   33.12
   33.27   33.33   33.41   33.47   33.58   33.62   33.67   33.80   33.83
   33.86   33.95   33.95   34.06   34.08   34.20   34.30   34.35   34.44
   34.50   34.58   34.61   34.74   34.76   34.85   34.89   34.97   35.05
   35.08   35.13   35.20   35.23   35.27   35.37   35.49   35.51   35.55
   35.70   35.74   35.84   35.85   35.90   36.00   36.02   36.15   36.17
   36.27   36.36   36.42   36.47   36.51   36.61   36.64   36.74   36.78
   36.92   36.98   37.00   37.08   37.12   37.17   37.25   37.32   37.44
   37.54   37.62   37.70   37.77   37.86   37.98   38.04   38.10   38.18
   38.22   38.30   38.42   38.44   38.52   38.54   38.61   38.69   38.73
   38.77   38.90   38.91   38.98   39.12   39.13   39.24   39.26   39.31
   39.44   39.51   39.68   39.79   39.87   39.90   39.94   40.06   40.08
   40.16   40.19   40.26   40.32   40.38   40.47   40.47   40.62   40.68
   40.80   40.84   40.87   41.09   41.16   41.21   41.24   41.30   41.32
   41.39   41.48   41.56   41.65   41.78   41.80   41.84   41.93   41.97
   42.02   42.08   42.22   42.26   42.35   42.41   42.44   42.52   42.62
   42.71   42.75   42.85   42.90   42.95   42.95   43.05   43.09   43.12
   43.20   43.33   43.39   43.47   43.51   43.67   43.78   43.83   43.92
   43.97   44.04   44.10   44.25   44.27   44.37   44.42   44.49   44.60
   44.73   44.76   44.85   44.89   44.94   45.00   45.04   45.25   45.34
   45.37   45.45   45.48   45.51   45.64   45.66   45.74   45.90   45.93
   45.99   46.08   46.17   46.23   46.28   46.36   46.45   46.58   46.62
   46.66   46.72   46.77   46.94   46.95   47.01   47.10   47.19   47.32
   47.33   47.40   47.48   47.56   47.73   47.75   47.82   47.86   47.99
   48.03   48.10   48.16   48.36   48.37   48.45   48.49   48.53   48.71
   48.84   48.92   48.97   49.01   49.10   49.18   49.19   49.35   49.37
   49.48   49.55   49.67   49.69   49.71   49.83   49.92   50.01   50.06
   50.13   50.26   50.28   50.37   50.42   50.53   50.56   50.73   50.81
   50.87   50.99   51.00   51.06   51.15   51.20   51.36   51.46   51.49
   51.53   51.64   51.73   51.90   51.96   52.00   52.06   52.16   52.27
   52.33   52.46   52.49   52.56   52.66   52.69   52.80   52.85   52.95
   53.00   53.03   53.16   53.27   53.34   53.47   53.51   53.61   53.66
   53.83   53.98   53.99   54.04   54.17   54.33   54.40   54.45   54.53
   54.61   54.72   54.75   54.77   54.97   55.01   55.15   55.16   55.24
   55.42   55.43   55.59   55.66   55.69   55.73   55.74   55.83   55.95
   56.03   56.19   56.24   56.28   56.39   56.45   56.51   56.60   56.74
   56.84   56.92   57.11   57.23   57.29   57.42   57.51   57.66   57.71
   57.77   57.86   57.95   58.01   58.04   58.07   58.18   58.26   58.38
   58.49   58.67   58.70   58.82   58.96   59.07   59.07   59.16   59.19
   59.38   59.48   59.56   59.59   59.66   59.72   59.97   59.98   60.06
   60.12   60.22   60.31   60.45   60.50   60.53   60.70   60.74   60.79
   60.90   61.03   61.13   61.21   61.26   61.29   61.41   61.48   61.56
   61.69   61.75   61.85   62.04   62.07   62.16   62.20   62.37   62.54
   62.58   62.70   62.82   62.87   63.01   63.11   63.21   63.28   63.39
   63.47   63.55   63.63   63.78   63.86   63.95   64.01   64.10   64.21
   64.27   64.37   64.47   64.49   64.65   64.68   64.85   65.06   65.13
   65.27   65.41   65.50   65.59   65.71   65.89   66.04   66.18   66.33
   66.39   66.47   66.57   66.73   66.81   66.96   67.02   67.25   67.40
   67.51   67.74   67.81   67.89   67.97   68.13   68.31   68.43   68.83
   68.93   68.99   69.21   69.28   69.45   69.57   69.82   69.85   70.03
   70.11   70.20   70.39   70.53   70.61   70.88   71.10   71.31   71.68
   71.80   71.97   72.27   72.79   72.86   73.37   73.41   73.68   73.82
   74.03   74.15   74.30   74.64   75.29   75.42   76.21   76.34   76.59
   76.85   76.91   77.44   77.67   78.03   78.30   78.51   79.47   81.23
   82.44   82.85   86.35



  Thermal conductivity: 

  Lorentzian broadening factor =     0.1126 cm-1

--------------------------------------------------------------------------------
 Mode    : Frequency (cm-1)         Thermal conductivity (cm**2/s)              
--------------------------------------------------------------------------------
     4        3.2488                  0.00000000000000
     5        5.1862                  0.00076446804943
     6        5.4569                  0.00095227174719
     7        5.7083                  0.00066425202375
     8        6.0151                  0.00040479428221
     9        6.4081                  0.00046664179167
    10        6.8003                  0.00050005379511
    11        7.3188                  0.00018257573307
    12        7.6710                  0.00037451784468
    13        7.9783                  0.00084726097343
    14        8.1475                  0.00102916714678
    15        8.2191                  0.00095285724352
    16        8.5986                  0.00072922370834
    17        8.8738                  0.00087216167026
    18        9.0923                  0.00159689321507
    19        9.2290                  0.00153716111784
    20        9.3613                  0.00122226294475
    21        9.4507                  0.00070026920734
    22        9.6690                  0.00109562361259
    23        9.8863                  0.00169583979234
    24       10.0113                  0.00161246420429
    25       10.1881                  0.00086661484484
    26       10.3873                  0.00117080251956
    27       10.4680                  0.00151230352221
    28       10.5745                  0.00103275400683
    29       10.8945                  0.00043469160859
    30       11.2211                  0.00082633984865
    31       11.3569                  0.00134812349817
    32       11.3839                  0.00072907235169
    33       11.5723                  0.00093649727397
    34       11.6977                  0.00132396345813
    35       11.7997                  0.00222309461507
    36       11.8976                  0.00202779699764
    37       11.9702                  0.00084915877217
    38       12.1049                  0.00088900157622
    39       12.2953                  0.00066859407565
    40       12.5022                  0.00092078601033
    41       12.6796                  0.00173256121064
    42       12.7482                  0.00174973155848
    43       12.8859                  0.00088529513120
    44       13.0523                  0.00110322228629
    45       13.0979                  0.00092106072516
    46       13.1829                  0.00105797193463
    47       13.3850                  0.00088233745604
    48       13.6068                  0.00278527605544
    49       13.6327                  0.00357665890575
    50       13.7874                  0.00128770752889
    51       13.8422                  0.00106021396690
    52       13.9318                  0.00095226905563
    53       14.1487                  0.00126364999627
    54       14.2196                  0.00186800724416
    55       14.2912                  0.00153428320321
    56       14.4047                  0.00120056317412
    57       14.5736                  0.00133260631701
    58       14.6063                  0.00137434218906
    59       14.7859                  0.00139422061173
    60       14.8498                  0.00198887153881
    61       14.9445                  0.00183556649984
    62       15.0550                  0.00149299121030
    63       15.1376                  0.00093232190326
    64       15.3363                  0.00152148293735
    65       15.3974                  0.00244017644944
    66       15.5421                  0.00204775641361
    67       15.6118                  0.00076445432269
    68       15.8944                  0.00118524893886
    69       15.8990                  0.00118126377107
    70       16.0994                  0.00087228170016
    71       16.2330                  0.00088832510017
    72       16.3434                  0.00125523608524
    73       16.4385                  0.00193792333148
    74       16.4812                  0.00178910086208
    75       16.5685                  0.00176698055710
    76       16.8152                  0.00064057451804
    77       16.9997                  0.00201942933314
    78       17.0352                  0.00184118793569
    79       17.0825                  0.00132901960886
    80       17.1520                  0.00118198084699
    81       17.2791                  0.00130383441328
    82       17.3799                  0.00166121727930
    83       17.4122                  0.00167176928256
    84       17.5865                  0.00139724614873
    85       17.6470                  0.00184168170989
    86       17.7104                  0.00091113177461
    87       17.8077                  0.00301751526564
    88       17.8513                  0.00355101670844
    89       17.9730                  0.00127451805523
    90       18.1029                  0.00094388910868
    91       18.2112                  0.00075477715979
    92       18.2749                  0.00143850488132
    93       18.3894                  0.00174893413291
    94       18.4176                  0.00183551740318
    95       18.5997                  0.00091177434127
    96       18.6645                  0.00117968150157
    97       18.7388                  0.00091318093566
    98       18.9320                  0.00091288195369
    99       19.0626                  0.00089465130514
   100       19.1274                  0.00102095441668
   101       19.1678                  0.00115599187537
   102       19.2801                  0.00180919419767
   103       19.3069                  0.00135490901196
   104       19.4110                  0.00122958295010
   105       19.4869                  0.00082519573940
   106       19.5671                  0.00067993112959
   107       19.7124                  0.00124314767228
   108       19.7309                  0.00127453508253
   109       19.7918                  0.00200576896273
   110       19.9450                  0.00186099746253
   111       19.9973                  0.00199540538275
   112       20.1034                  0.00203418889301
   113       20.1950                  0.00147573294036
   114       20.2212                  0.00159136557506
   115       20.3564                  0.00131602938748
   116       20.5182                  0.00121288475801
   117       20.5831                  0.00124871057191
   118       20.6240                  0.00123652210871
   119       20.6460                  0.00094062715113
   120       20.7672                  0.00160969374174
   121       20.8527                  0.00152014509100
   122       20.9519                  0.00117067746163
   123       21.0598                  0.00169464985240
   124       21.1288                  0.00095456136321
   125       21.1991                  0.00132127835561
   126       21.2469                  0.00225576888470
   127       21.3232                  0.00198203092916
   128       21.5224                  0.00105622971640
   129       21.5785                  0.00141762288692
   130       21.6364                  0.00121959518565
   131       21.6650                  0.00191201274365
   132       21.8046                  0.00160565995712
   133       21.8738                  0.00249413711693
   134       21.9661                  0.00228382135257
   135       22.0764                  0.00153776658924
   136       22.0864                  0.00123109427842
   137       22.1637                  0.00152970332477
   138       22.2259                  0.00161129105388
   139       22.3991                  0.00104341536446
   140       22.4808                  0.00104874709085
   141       22.5815                  0.00143280887997
   142       22.6103                  0.00329542187711
   143       22.6690                  0.00345791105325
   144       22.7172                  0.00215239761160
   145       22.8609                  0.00122535022322
   146       22.9021                  0.00152923729302
   147       23.0461                  0.00108983464168
   148       23.1040                  0.00122682717117
   149       23.1496                  0.00144207082753
   150       23.1569                  0.00150133509343
   151       23.2848                  0.00180742632745
   152       23.3782                  0.00218181827162
   153       23.4443                  0.00181918276211
   154       23.5456                  0.00256614132357
   155       23.5951                  0.00229189801192
   156       23.6370                  0.00190778789194
   157       23.6399                  0.00153229806719
   158       23.7569                  0.00133950275676
   159       23.8837                  0.00123419891025
   160       23.9876                  0.00222837106902
   161       24.0156                  0.00238244399604
   162       24.0858                  0.00123453420798
   163       24.1833                  0.00094245059628
   164       24.2859                  0.00094815209458
   165       24.3309                  0.00167046828446
   166       24.4181                  0.00176298652085
   167       24.4574                  0.00193485258960
   168       24.5849                  0.00130503358415
   169       24.6815                  0.00106313104937
   170       24.7213                  0.00142303381462
   171       24.7832                  0.00140346314820
   172       24.9036                  0.00148585117830
   173       24.9811                  0.00142604850001
   174       25.0322                  0.00137117024668
   175       25.0444                  0.00146050912482
   176       25.0766                  0.00193799606166
   177       25.1894                  0.00176808899877
   178       25.3102                  0.00166897028278
   179       25.3846                  0.00148138940356
   180       25.4218                  0.00155828301726
   181       25.4905                  0.00178409051026
   182       25.5279                  0.00096919688501
   183       25.6338                  0.00115170686695
   184       25.6996                  0.00105499543747
   185       25.8366                  0.00099694428924
   186       25.9713                  0.00133834990923
   187       26.0011                  0.00143983930960
   188       26.1977                  0.00157270958001
   189       26.2078                  0.00180958687489
   190       26.2240                  0.00093676030084
   191       26.2857                  0.00158786650334
   192       26.3066                  0.00147324158787
   193       26.4219                  0.00124933508460
   194       26.4617                  0.00179942936664
   195       26.5380                  0.00258845626260
   196       26.5985                  0.00149796822500
   197       26.6392                  0.00236277347817
   198       26.7028                  0.00084668423113
   199       26.8655                  0.00088689073426
   200       26.9108                  0.00090823156974
   201       26.9899                  0.00071531858668
   202       27.0398                  0.00154289810631
   203       27.1191                  0.00118642335728
   204       27.2053                  0.00166928412808
   205       27.2303                  0.00161134391479
   206       27.3496                  0.00095506635945
   207       27.4361                  0.00151977468677
   208       27.5076                  0.00117197699958
   209       27.6103                  0.00082753086647
   210       27.6570                  0.00117584941472
   211       27.7578                  0.00130724461037
   212       27.8350                  0.00105838465043
   213       27.8885                  0.00160573902021
   214       27.9485                  0.00200801503665
   215       27.9985                  0.00249625345490
   216       28.0821                  0.00178556653321
   217       28.1414                  0.00129301176524
   218       28.1934                  0.00163696821128
   219       28.2043                  0.00184215917056
   220       28.2862                  0.00204959328863
   221       28.3826                  0.00159938607280
   222       28.4645                  0.00121696646175
   223       28.5526                  0.00160621859225
   224       28.5888                  0.00212692482572
   225       28.6332                  0.00192727680388
   226       28.7980                  0.00086253556522
   227       28.8898                  0.00152037733957
   228       28.9274                  0.00133394769117
   229       28.9403                  0.00111487943658
   230       29.0166                  0.00165453332193
   231       29.0895                  0.00128474125660
   232       29.1962                  0.00176821458326
   233       29.2123                  0.00146559370946
   234       29.2717                  0.00112619150222
   235       29.3733                  0.00105773653504
   236       29.4032                  0.00109506344628
   237       29.5685                  0.00089449388781
   238       29.6582                  0.00084769509701
   239       29.7289                  0.00129818724888
   240       29.7695                  0.00137302697123
   241       29.8955                  0.00126265432400
   242       29.9228                  0.00105974139409
   243       29.9706                  0.00142899770888
   244       30.0227                  0.00102828549298
   245       30.1892                  0.00099273117465
   246       30.2759                  0.00179920362187
   247       30.3495                  0.00201087128287
   248       30.4271                  0.00179582610993
   249       30.4496                  0.00176186752780
   250       30.5198                  0.00135858826784
   251       30.5456                  0.00110193676333
   252       30.6334                  0.00104398324807
   253       30.7227                  0.00144771006174
   254       30.8145                  0.00198672189575
   255       30.8959                  0.00400193232756
   256       30.9017                  0.00228294688175
   257       30.9928                  0.00172446128731
   258       31.0650                  0.00120053497688
   259       31.0914                  0.00152287546795
   260       31.1594                  0.00232697574164
   261       31.2568                  0.00154317993689
   262       31.3163                  0.00127978024410
   263       31.3768                  0.00174288262954
   264       31.4503                  0.00170223795055
   265       31.5510                  0.00091148341227
   266       31.6089                  0.00175933944243
   267       31.6755                  0.00170610448389
   268       31.7802                  0.00207102988415
   269       31.8783                  0.00322210423526
   270       31.8945                  0.00316380844768
   271       31.9774                  0.00212325189278
   272       31.9952                  0.00208606994978
   273       32.0959                  0.00137857090858
   274       32.1445                  0.00101814303457
   275       32.2134                  0.00126935854186
   276       32.2656                  0.00139580149765
   277       32.4377                  0.00096278832176
   278       32.4766                  0.00095155169782
   279       32.5086                  0.00133522451299
   280       32.6045                  0.00146185398113
   281       32.6536                  0.00134358439904
   282       32.7780                  0.00086977438091
   283       32.8627                  0.00152816359102
   284       33.0047                  0.00181689481854
   285       33.0164                  0.00233239584659
   286       33.0491                  0.00207696760215
   287       33.0667                  0.00225419660870
   288       33.1232                  0.00195918976516
   289       33.2723                  0.00091765625371
   290       33.3317                  0.00124307040784
   291       33.4054                  0.00120710294609
   292       33.4711                  0.00140472041434
   293       33.5755                  0.00160117832991
   294       33.6159                  0.00158381403356
   295       33.6668                  0.00129508647193
   296       33.8014                  0.00161683718397
   297       33.8258                  0.00165460784167
   298       33.8623                  0.00187452408395
   299       33.9457                  0.00147361114295
   300       33.9497                  0.00211136382725
   301       34.0567                  0.00128714316533
   302       34.0816                  0.00154512056333
   303       34.2042                  0.00124222419020
   304       34.2978                  0.00178655937045
   305       34.3492                  0.00159401023271
   306       34.4352                  0.00112189618779
   307       34.5015                  0.00156718910272
   308       34.5805                  0.00093861823711
   309       34.6114                  0.00117061518751
   310       34.7365                  0.00153297374273
   311       34.7607                  0.00128091706757
   312       34.8497                  0.00137925155587
   313       34.8864                  0.00099436490178
   314       34.9719                  0.00172023593546
   315       35.0473                  0.00186866902821
   316       35.0825                  0.00194560157467
   317       35.1323                  0.00188282897357
   318       35.1951                  0.00249348352317
   319       35.2321                  0.00207617467803
   320       35.2722                  0.00132834082114
   321       35.3743                  0.00102003799799
   322       35.4919                  0.00120210865277
   323       35.5083                  0.00106066462200
   324       35.5454                  0.00113235106716
   325       35.7032                  0.00135679804675
   326       35.7410                  0.00136841580765
   327       35.8388                  0.00125862089303
   328       35.8547                  0.00101539929919
   329       35.9014                  0.00118910053296
   330       35.9983                  0.00100656257353
   331       36.0235                  0.00076727955696
   332       36.1487                  0.00119940833325
   333       36.1703                  0.00104910461760
   334       36.2732                  0.00118557230131
   335       36.3551                  0.00189130574438
   336       36.4212                  0.00154215423632
   337       36.4657                  0.00200615045558
   338       36.5098                  0.00130084133494
   339       36.6135                  0.00144277562792
   340       36.6387                  0.00169184115166
   341       36.7363                  0.00119318493855
   342       36.7785                  0.00089557894612
   343       36.9195                  0.00309391539017
   344       36.9794                  0.00257816353415
   345       36.9994                  0.00232528124184
   346       37.0792                  0.00107139340533
   347       37.1229                  0.00123412453989
   348       37.1727                  0.00103753919717
   349       37.2460                  0.00108615988312
   350       37.3160                  0.00094721820998
   351       37.4434                  0.00092586433549
   352       37.5416                  0.00101711510071
   353       37.6196                  0.00127681141759
   354       37.6978                  0.00075355549181
   355       37.7698                  0.00121976373469
   356       37.8622                  0.00109482027987
   357       37.9751                  0.00183079538727
   358       38.0409                  0.00111731780996
   359       38.1018                  0.00202535491087
   360       38.1810                  0.00134257182721
   361       38.2225                  0.00184583220631
   362       38.2986                  0.00147562258896
   363       38.4208                  0.00115599897515
   364       38.4370                  0.00158126534319
   365       38.5204                  0.00135347752095
   366       38.5381                  0.00140077626874
   367       38.6125                  0.00139007448565
   368       38.6856                  0.00122854739967
   369       38.7279                  0.00144152169156
   370       38.7695                  0.00124565051270
   371       38.9003                  0.00143889967299
   372       38.9111                  0.00207339207502
   373       38.9817                  0.00176484997234
   374       39.1245                  0.00153185023943
   375       39.1298                  0.00107757984589
   376       39.2433                  0.00156537227717
   377       39.2621                  0.00169978041627
   378       39.3149                  0.00213369741876
   379       39.4395                  0.00093167287907
   380       39.5074                  0.00083898301946
   381       39.6755                  0.00092074676148
   382       39.7945                  0.00084013660013
   383       39.8708                  0.00102296823967
   384       39.8955                  0.00126245645072
   385       39.9389                  0.00140401068435
   386       40.0576                  0.00125629724574
   387       40.0817                  0.00124429265123
   388       40.1610                  0.00175281108972
   389       40.1927                  0.00152100717980
   390       40.2620                  0.00112994450585
   391       40.3201                  0.00161450149168
   392       40.3792                  0.00143156138907
   393       40.4676                  0.00125466024826
   394       40.4716                  0.00183437966139
   395       40.6225                  0.00202033137592
   396       40.6823                  0.00152270236660
   397       40.7991                  0.00179546642873
   398       40.8397                  0.00129212490722
   399       40.8741                  0.00128656167799
   400       41.0891                  0.00094862044136
   401       41.1617                  0.00169314591583
   402       41.2118                  0.00213300387531
   403       41.2393                  0.00184318256733
   404       41.2962                  0.00164281444447
   405       41.3202                  0.00212233359897
   406       41.3948                  0.00158766539350
   407       41.4769                  0.00093541425805
   408       41.5587                  0.00136898971269
   409       41.6457                  0.00116444674932
   410       41.7818                  0.00164915476963
   411       41.7951                  0.00153082936277
   412       41.8410                  0.00121854881668
   413       41.9348                  0.00130424606067
   414       41.9669                  0.00154624448378
   415       42.0221                  0.00172035239219
   416       42.0820                  0.00161265159714
   417       42.2245                  0.00196296990483
   418       42.2554                  0.00179344175780
   419       42.3472                  0.00111102376586
   420       42.4055                  0.00121274914822
   421       42.4368                  0.00091323445601
   422       42.5196                  0.00127872883582
   423       42.6156                  0.00131698174203
   424       42.7140                  0.00148907973330
   425       42.7546                  0.00118958651479
   426       42.8507                  0.00287988078302
   427       42.9001                  0.00186388140392
   428       42.9508                  0.00312470039015
   429       42.9546                  0.00131285514030
   430       43.0544                  0.00171622250031
   431       43.0930                  0.00177001154016
   432       43.1197                  0.00107954046846
   433       43.1964                  0.00107636770396
   434       43.3316                  0.00125707847377
   435       43.3853                  0.00119890724950
   436       43.4665                  0.00108525670040
   437       43.5142                  0.00099533076107
   438       43.6695                  0.00120955597311
   439       43.7761                  0.00141315462587
   440       43.8322                  0.00123715495552
   441       43.9238                  0.00143594451151
   442       43.9743                  0.00140873146508
   443       44.0367                  0.00179041425499
   444       44.1035                  0.00100562370847
   445       44.2488                  0.00125948619090
   446       44.2737                  0.00115802089233
   447       44.3681                  0.00137397787476
   448       44.4200                  0.00149306324497
   449       44.4857                  0.00084509646884
   450       44.5966                  0.00131994910978
   451       44.7314                  0.00091825922028
   452       44.7645                  0.00135709761106
   453       44.8508                  0.00136361366478
   454       44.8909                  0.00185869755668
   455       44.9423                  0.00178803110599
   456       45.0018                  0.00211202405791
   457       45.0420                  0.00148562454484
   458       45.2462                  0.00119865832510
   459       45.3352                  0.00183361114756
   460       45.3652                  0.00155803227031
   461       45.4458                  0.00145898951941
   462       45.4823                  0.00167507734017
   463       45.5126                  0.00184986340258
   464       45.6411                  0.00115252054563
   465       45.6551                  0.00155159412677
   466       45.7436                  0.00154560193515
   467       45.8951                  0.00099545167328
   468       45.9258                  0.00152818833970
   469       45.9862                  0.00140922090523
   470       46.0811                  0.00114595629709
   471       46.1711                  0.00145690626947
   472       46.2261                  0.00117260508451
   473       46.2774                  0.00150896287022
   474       46.3631                  0.00145465907286
   475       46.4465                  0.00117325658507
   476       46.5795                  0.00099879326990
   477       46.6214                  0.00094231559764
   478       46.6608                  0.00161314561490
   479       46.7184                  0.00129558803926
   480       46.7704                  0.00149837919449
   481       46.9390                  0.00132893998901
   482       46.9478                  0.00176032763521
   483       47.0096                  0.00137094872523
   484       47.0996                  0.00127857680766
   485       47.1867                  0.00103243804117
   486       47.3166                  0.00166344207246
   487       47.3265                  0.00138444610777
   488       47.3983                  0.00108279075015
   489       47.4807                  0.00102669352282
   490       47.5640                  0.00078349889517
   491       47.7314                  0.00109989774859
   492       47.7486                  0.00111921005947
   493       47.8165                  0.00094544251170
   494       47.8614                  0.00113103997271
   495       47.9922                  0.00145783731844
   496       48.0280                  0.00123716874003
   497       48.0956                  0.00105770355695
   498       48.1597                  0.00065909752963
   499       48.3603                  0.00123403720509
   500       48.3658                  0.00127906168234
   501       48.4517                  0.00141590920748
   502       48.4857                  0.00135621827533
   503       48.5297                  0.00070419672895
   504       48.7078                  0.00089895163295
   505       48.8396                  0.00128614206269
   506       48.9191                  0.00086248271492
   507       48.9746                  0.00067395287505
   508       49.0108                  0.00125243361037
   509       49.1004                  0.00147665024623
   510       49.1807                  0.00129372468163
   511       49.1927                  0.00094086484452
   512       49.3466                  0.00098678271526
   513       49.3715                  0.00097518356162
   514       49.4776                  0.00065787277911
   515       49.5503                  0.00109854670955
   516       49.6663                  0.00093432966784
   517       49.6948                  0.00098378958610
   518       49.7138                  0.00107374725757
   519       49.8267                  0.00089826737517
   520       49.9241                  0.00070727940384
   521       50.0115                  0.00095999099930
   522       50.0630                  0.00072861984249
   523       50.1321                  0.00104721415732
   524       50.2603                  0.00078893850845
   525       50.2803                  0.00099391680038
   526       50.3742                  0.00191879426072
   527       50.4207                  0.00118579524701
   528       50.5272                  0.00136321658926
   529       50.5623                  0.00069003735833
   530       50.7255                  0.00076649309748
   531       50.8132                  0.00125542612124
   532       50.8736                  0.00080105947849
   533       50.9851                  0.00139164585515
   534       50.9964                  0.00165812156652
   535       51.0609                  0.00204567930919
   536       51.1500                  0.00183533703660
   537       51.1976                  0.00168010433325
   538       51.3551                  0.00098464452285
   539       51.4649                  0.00088209950371
   540       51.4911                  0.00110191637442
   541       51.5276                  0.00116730255457
   542       51.6389                  0.00107083755332
   543       51.7280                  0.00051987100823
   544       51.8972                  0.00108678299360
   545       51.9572                  0.00152547745517
   546       51.9962                  0.00100492341778
   547       52.0584                  0.00164423318038
   548       52.1606                  0.00076594088729
   549       52.2727                  0.00060341290855
   550       52.3260                  0.00061246269961
   551       52.4550                  0.00086914883936
   552       52.4890                  0.00080544393906
   553       52.5629                  0.00115558045907
   554       52.6552                  0.00125703775262
   555       52.6912                  0.00149812005529
   556       52.7964                  0.00113455457511
   557       52.8503                  0.00081622790173
   558       52.9548                  0.00141873155896
   559       53.0031                  0.00122628381561
   560       53.0268                  0.00141450356539
   561       53.1603                  0.00092081148950
   562       53.2720                  0.00070954039723
   563       53.3444                  0.00083993240893
   564       53.4662                  0.00090191508792
   565       53.5118                  0.00081452679668
   566       53.6110                  0.00072909004505
   567       53.6634                  0.00054020658572
   568       53.8292                  0.00076663740755
   569       53.9819                  0.00185179398672
   570       53.9885                  0.00144734122708
   571       54.0359                  0.00124549026507
   572       54.1658                  0.00070110660743
   573       54.3284                  0.00079618512845
   574       54.3986                  0.00114066750048
   575       54.4535                  0.00069658776167
   576       54.5270                  0.00119883854047
   577       54.6050                  0.00153282049523
   578       54.7211                  0.00152954002304
   579       54.7480                  0.00094404442998
   580       54.7655                  0.00145473491457
   581       54.9694                  0.00196815400196
   582       55.0055                  0.00190320583058
   583       55.1509                  0.00049741400769
   584       55.1646                  0.00074574597988
   585       55.2438                  0.00064969289120
   586       55.4195                  0.00093060877770
   587       55.4273                  0.00065183669452
   588       55.5911                  0.00130598662030
   589       55.6573                  0.00115036096319
   590       55.6913                  0.00174474837347
   591       55.7328                  0.00166789752067
   592       55.7392                  0.00188534558384
   593       55.8299                  0.00102941154532
   594       55.9525                  0.00088124902333
   595       56.0339                  0.00049707350341
   596       56.1947                  0.00083965255323
   597       56.2357                  0.00057828021492
   598       56.2755                  0.00081017102265
   599       56.3863                  0.00093331277174
   600       56.4467                  0.00078165578609
   601       56.5115                  0.00071233770326
   602       56.6033                  0.00060486418708
   603       56.7367                  0.00069772807374
   604       56.8419                  0.00101020610372
   605       56.9169                  0.00064849278481
   606       57.1073                  0.00098279951065
   607       57.2286                  0.00115079690576
   608       57.2947                  0.00063408650579
   609       57.4178                  0.00061280071084
   610       57.5105                  0.00060616941008
   611       57.6561                  0.00054176745448
   612       57.7097                  0.00083767189948
   613       57.7734                  0.00114790076872
   614       57.8592                  0.00083098388231
   615       57.9530                  0.00130598356490
   616       58.0132                  0.00141085920811
   617       58.0405                  0.00149165066908
   618       58.0719                  0.00158561277124
   619       58.1805                  0.00153054499947
   620       58.2638                  0.00092316622924
   621       58.3820                  0.00089815109578
   622       58.4887                  0.00067824485501
   623       58.6737                  0.00064268813375
   624       58.7041                  0.00096570490911
   625       58.8170                  0.00038424622608
   626       58.9637                  0.00079398272183
   627       59.0654                  0.00072308563480
   628       59.0707                  0.00089039468398
   629       59.1556                  0.00084913119261
   630       59.1932                  0.00094763548252
   631       59.3764                  0.00083811617268
   632       59.4833                  0.00098573075002
   633       59.5558                  0.00121542911265
   634       59.5933                  0.00108484419862
   635       59.6562                  0.00089061397895
   636       59.7231                  0.00113537214135
   637       59.9682                  0.00102773650026
   638       59.9777                  0.00108075211342
   639       60.0591                  0.00136662214574
   640       60.1227                  0.00115628147861
   641       60.2230                  0.00102682981617
   642       60.3120                  0.00062007817097
   643       60.4487                  0.00053487361978
   644       60.5023                  0.00083542085704
   645       60.5275                  0.00067526583284
   646       60.6970                  0.00100964584845
   647       60.7403                  0.00070079053308
   648       60.7945                  0.00067566712368
   649       60.8984                  0.00067415861481
   650       61.0254                  0.00074233498048
   651       61.1344                  0.00084846399955
   652       61.2125                  0.00094551164576
   653       61.2639                  0.00135918848645
   654       61.2900                  0.00123224658967
   655       61.4149                  0.00090173785475
   656       61.4826                  0.00102497648807
   657       61.5623                  0.00074771700132
   658       61.6866                  0.00047637721294
   659       61.7476                  0.00070044509105
   660       61.8472                  0.00065619833552
   661       62.0353                  0.00063900656838
   662       62.0729                  0.00099026033211
   663       62.1565                  0.00102443709822
   664       62.1990                  0.00065232401094
   665       62.3681                  0.00036487582078
   666       62.5405                  0.00058469510050
   667       62.5759                  0.00046859324833
   668       62.6969                  0.00056810671231
   669       62.8182                  0.00042074447743
   670       62.8695                  0.00045726436903
   671       63.0114                  0.00089507152937
   672       63.1062                  0.00125322876352
   673       63.2087                  0.00048061137679
   674       63.2770                  0.00045229259078
   675       63.3926                  0.00046894371189
   676       63.4673                  0.00059913352282
   677       63.5509                  0.00031031763355
   678       63.6328                  0.00044102263216
   679       63.7789                  0.00042339454442
   680       63.8633                  0.00048874207835
   681       63.9540                  0.00072717372769
   682       64.0107                  0.00090404806750
   683       64.1045                  0.00059441767022
   684       64.2124                  0.00130527324725
   685       64.2665                  0.00097855303763
   686       64.3734                  0.00052638615253
   687       64.4695                  0.00055465975120
   688       64.4859                  0.00066578812436
   689       64.6549                  0.00072214311522
   690       64.6822                  0.00071978160461
   691       64.8490                  0.00019774384004
   692       65.0638                  0.00019945441001
   693       65.1329                  0.00028860280023
   694       65.2662                  0.00042850312882
   695       65.4101                  0.00045688238855
   696       65.4987                  0.00045501102344
   697       65.5898                  0.00033391083290
   698       65.7096                  0.00034394094536
   699       65.8943                  0.00027676920991
   700       66.0443                  0.00023999557539
   701       66.1847                  0.00022843744578
   702       66.3292                  0.00032004389014
   703       66.3921                  0.00068049593425
   704       66.4705                  0.00065746695948
   705       66.5736                  0.00041182760219
   706       66.7284                  0.00039544399611
   707       66.8066                  0.00055657453339
   708       66.9576                  0.00053125280956
   709       67.0153                  0.00059110024044
   710       67.2512                  0.00030613627171
   711       67.4019                  0.00023289933655
   712       67.5116                  0.00025439156556
   713       67.7367                  0.00033114899469
   714       67.8079                  0.00043296454966
   715       67.8937                  0.00055710545004
   716       67.9674                  0.00049981426529
   717       68.1264                  0.00026337422425
   718       68.3097                  0.00030825844324
   719       68.4276                  0.00017818937238
   720       68.8271                  0.00027579686110
   721       68.9283                  0.00030625460979
   722       68.9850                  0.00026157522747
   723       69.2094                  0.00040883030824
   724       69.2802                  0.00042932532670
   725       69.4547                  0.00026739430124
   726       69.5707                  0.00021341495588
   727       69.8195                  0.00026947052459
   728       69.8483                  0.00023770746877
   729       70.0331                  0.00027103102013
   730       70.1110                  0.00027811966548
   731       70.2036                  0.00028121347246
   732       70.3872                  0.00016820249340
   733       70.5281                  0.00031281181939
   734       70.6101                  0.00024824348803
   735       70.8812                  0.00007044122975
   736       71.0965                  0.00005883928339
   737       71.3070                  0.00009899627501
   738       71.6836                  0.00022403553189
   739       71.8018                  0.00023549564512
   740       71.9721                  0.00011680778267
   741       72.2651                  0.00009015137884
   742       72.7941                  0.00011732075945
   743       72.8602                  0.00011281832114
   744       73.3670                  0.00031573381601
   745       73.4067                  0.00029690904152
   746       73.6823                  0.00010744666001
   747       73.8168                  0.00006985122857
   748       74.0319                  0.00015866072659
   749       74.1519                  0.00023506193830
   750       74.3035                  0.00014312173134
   751       74.6422                  0.00006067342930
   752       75.2851                  0.00002638913651
   753       75.4212                  0.00005398745533
   754       76.2103                  0.00019012237811
   755       76.3446                  0.00015798836238
   756       76.5906                  0.00005174395183
   757       76.8502                  0.00028550317842
   758       76.9126                  0.00027846001928
   759       77.4417                  0.00006378318808
   760       77.6652                  0.00002684714224
   761       78.0298                  0.00003844826778
   762       78.3023                  0.00002437000735
   763       78.5114                  0.00001853727621
   764       79.4656                  0.00000524178729
   765       81.2291                  0.00000851845965
   766       82.4449                  0.00000368450675
   767       82.8510                  0.00000819284501
   768       86.3543                  0.00000000000000
--------------------------------------------------------------------------------
  Thermal conductivity =     0.127575 W/(m.K) 
--------------------------------------------------------------------------------

--------------------------------------------------------------------------------
  Phonon properties (per mole of unit cells): Temperature =   1000.000 K
--------------------------------------------------------------------------------
  Zero point energy            =        1.930227 eV
  Entropy                      =        0.261023 eV/K
                               =    25184.763956 J/(mol.K)
  Helmholtz free-energy        =     -214.772534 eV
                               =   -20722.264631 kJmol-1
  Free energy (equipartition)  =     -214.783765 eV
  - T*S       (equipartition)  =     -261.012151 eV
  Uvib        (equipartition)  =       65.922621 eV
  Mean kinetic energy          =       33.101801 eV
  Heat capacity - const volume =        0.065900 eV/K
                               =     6358.358063 J/(mol.K)
--------------------------------------------------------------------------------

  Phonon density of states : 

--------------------------------------------------------------------------------
 Frequency (cm-1) Density of States                                             
--------------------------------------------------------------------------------
    0.00000 |                                                              0.000
    1.34929 |                                                              0.000
    2.69857 |**                                                            0.001
    4.04786 |**                                                            0.001
    5.39715 |***********                                                   0.005
    6.74644 |***********                                                   0.005
    8.09572 |*******************                                           0.009
    9.44501 |**********************                                        0.010
   10.79430 |****************************                                  0.013
   12.14358 |*************************                                     0.012
   13.49287 |**********************************                            0.016
   14.84216 |*******************************                               0.014
   16.19145 |*************************************                         0.017
   17.54073 |***************************************                       0.018
   18.89002 |************************************************              0.022
   20.23931 |******************************************                    0.020
   21.58859 |************************************************              0.022
   22.93788 |***************************************************           0.024
   24.28717 |******************************************************        0.025
   25.63646 |************************************************              0.022
   26.98574 |*********************************************************     0.026
   28.33503 |***************************************************           0.024
   29.68432 |******************************************************        0.025
   31.03361 |******************************************************        0.025
   32.38289 |******************************************************        0.025
   33.73218 |*********************************************************     0.026
   35.08147 |***********************************************************   0.027
   36.43075 |******************************************************        0.025
   37.78004 |******************************************************        0.025
   39.12933 |*********************************************************     0.026
   40.47862 |************************************************              0.022
   41.82790 |***********************************************************   0.027
   43.17719 |************************************************              0.022
   44.52648 |************************************************              0.022
   45.87576 |******************************************************        0.025
   47.22505 |***************************************************           0.024
   48.57434 |*********************************************                 0.021
   49.92363 |***************************************************           0.024
   51.27291 |*********************************************                 0.021
   52.62220 |******************************************                    0.020
   53.97149 |************************************************              0.022
   55.32077 |************************************************              0.022
   56.67006 |***************************************                       0.018
   58.01935 |***************************************                       0.018
   59.36864 |*********************************************                 0.021
   60.71792 |******************************************                    0.020
   62.06721 |***************************************                       0.018
   63.41650 |******************************************                    0.020
   64.76578 |****************************                                  0.013
   66.11507 |*******************************                               0.014
   67.46436 |**********************                                        0.010
   68.81365 |*******************************                               0.014
   70.16293 |*******************                                           0.009
   71.51222 |*****************                                             0.008
   72.86151 |*****************                                             0.008
   74.21079 |***********                                                   0.005
   75.56008 |***********                                                   0.005
   76.90937 |***********                                                   0.005
   78.25866 |********                                                      0.004
   79.60794 |                                                              0.000
   80.95723 |**                                                            0.001
   82.30652 |*****                                                         0.003
   83.65581 |                                                              0.000
   85.00509 |**                                                            0.001
--------------------------------------------------------------------------------



  XYZ File written as gulp.xyz                                


  Time to end of properties =       5.9341 seconds


  Peak dynamic memory used =      10.73 MB 


  Timing analysis for GULP :

--------------------------------------------------------------------------------
  Task / Subroutine                                          Time (Seconds)
--------------------------------------------------------------------------------
  Calculation of real space energy and derivatives                0.0990
  Calculation of phonons                                          5.5352
  Calculation of scattering                                       0.0000
  Disk read/write operations to scratch files                     0.0040
--------------------------------------------------------------------------------
  Total CPU time                                                  5.9341
--------------------------------------------------------------------------------


  Job Finished at 16:40.56 30th June       2013                               

