	reset_timestep  	0
	fix 			1 all nve
	dump 			vel all custom ${w_step} dump_${iseed}_${ifft}.vel vx vy vz
	dump 			vel all custom 32 dump_${iseed}_${ifft}.vel vx vy vz
	dump 			vel all custom 32 dump_1_${ifft}.vel vx vy vz
	dump 			vel all custom 32 dump_1_1.vel vx vy vz
	dump_modify 		vel sort id
	thermo_style 		custom step temp press vol
	thermo			5000
	timestep		${dt}
	timestep		0.002
	run			${w_total}
	run			524288
Memory usage per processor = 1.51207 Mbytes
Step Temp Press Volume 
       0  0.082191129   0.04739662     241.0483 
    5000  0.076629934   0.09528488     241.0483 
   10000  0.085055701  0.025808348     241.0483 
   15000  0.084174459   0.02971902     241.0483 
   20000  0.085962398  0.015202886     241.0483 
   25000  0.082388992  0.046976428     241.0483 
   30000  0.089062995 -0.0064033627     241.0483 
   35000  0.083173942   0.03866918     241.0483 
   40000  0.090721122 -0.018679253     241.0483 
   45000  0.086338902  0.015934997     241.0483 
   50000  0.087711621 0.0052909384     241.0483 
   55000  0.087644084 0.0020501672     241.0483 
   60000  0.084267754  0.030525762     241.0483 
   65000  0.082679469  0.051307517     241.0483 
   70000  0.082775442  0.044580134     241.0483 
   75000  0.082936847  0.050967643     241.0483 
   80000   0.07988732  0.068867808     241.0483 
   85000  0.083605398  0.037424446     241.0483 
   90000  0.088360773 0.0043412994     241.0483 
   95000  0.085582329  0.032428778     241.0483 
  100000    0.0867926  0.019744567     241.0483 
  105000  0.076727252   0.10022142     241.0483 
  110000  0.083377516  0.041412358     241.0483 
  115000  0.083110088  0.045343797     241.0483 
  120000  0.084005554  0.037303279     241.0483 
  125000  0.086807296   0.01548074     241.0483 
  130000  0.089200996 -0.0032662443     241.0483 
  135000  0.087580454 0.0044358302     241.0483 
  140000  0.081274956  0.050105169     241.0483 
  145000  0.080642254  0.057423746     241.0483 
  150000  0.080334558  0.064408166     241.0483 
  155000  0.087541905  0.004668768     241.0483 
  160000  0.082145731  0.053806055     241.0483 
  165000  0.085941028  0.016887558     241.0483 
  170000  0.081968019  0.051182343     241.0483 
  175000  0.081720198  0.048241724     241.0483 
  180000  0.083239833  0.048053665     241.0483 
  185000   0.08044175  0.067393002     241.0483 
  190000  0.081259388  0.055983576     241.0483 
  195000  0.082575797  0.043850345     241.0483 
  200000  0.078333959   0.08300945     241.0483 
  205000  0.081949176  0.046536625     241.0483 
  210000  0.082094185  0.050066866     241.0483 
  215000   0.08326947  0.039311075     241.0483 
  220000  0.090369667 -0.015771689     241.0483 
  225000  0.086928969  0.012195339     241.0483 
  230000  0.085155995   0.03242765     241.0483 
  235000  0.091189163 -0.027938829     241.0483 
  240000  0.089192318 -0.0055948674     241.0483 
  245000  0.081512793  0.054898227     241.0483 
  250000  0.080796479  0.057360528     241.0483 
  255000  0.080881158  0.064901211     241.0483 
  260000  0.085899543  0.022501198     241.0483 
  265000   0.08298314   0.05027086     241.0483 
  270000  0.091636396 -0.024025178     241.0483 
  275000  0.090049304 -0.010121074     241.0483 
  280000  0.081293497  0.058883101     241.0483 
  285000  0.082229519  0.049887705     241.0483 
  290000  0.082995936  0.041406872     241.0483 
  295000  0.083270197  0.044647206     241.0483 
  300000  0.080782026  0.063937251     241.0483 
  305000   0.08741719  0.014559248     241.0483 
  310000  0.079176905  0.070350256     241.0483 
  315000  0.089939903 -0.011148086     241.0483 
  320000  0.080481727  0.062679136     241.0483 
  325000  0.083375437  0.039715171     241.0483 
  330000  0.083867879  0.036552241     241.0483 
  335000   0.08472945  0.033610445     241.0483 
  340000  0.083308168  0.039276405     241.0483 
  345000  0.084288566  0.034773207     241.0483 
  350000  0.087354756  0.011210622     241.0483 
  355000   0.08366489  0.039377246     241.0483 
  360000  0.084193457  0.036648275     241.0483 
  365000  0.079593236  0.070323482     241.0483 
  370000  0.088111479 0.00030463988     241.0483 
  375000  0.084840885  0.028845205     241.0483 
  380000  0.085807745  0.017712538     241.0483 
  385000   0.07512613   0.10659576     241.0483 
  390000  0.082914738  0.042249902     241.0483 
  395000  0.078251315  0.079282584     241.0483 
  400000  0.085208876  0.028986792     241.0483 
  405000  0.080958295  0.060778896     241.0483 
  410000  0.083902845  0.032758411     241.0483 
  415000  0.082020471  0.049871898     241.0483 
  420000  0.084901485  0.026983907     241.0483 
  425000  0.080154969  0.070844249     241.0483 
  430000  0.082995831  0.050292321     241.0483 
  435000  0.080729447  0.060767518     241.0483 
  440000  0.079105834  0.080338246     241.0483 
  445000  0.081644718  0.054161459     241.0483 
  450000  0.084165132  0.032305638     241.0483 
  455000  0.087469441  0.012779291     241.0483 
  460000  0.082968849  0.045806756     241.0483 
  465000  0.090691091 -0.018274001     241.0483 
  470000   0.08390612  0.036459017     241.0483 
  475000  0.084894985  0.033204645     241.0483 
  480000  0.082885898  0.044816139     241.0483 
  485000  0.078821887  0.077972605     241.0483 
  490000  0.089106598 -0.0095025011     241.0483 
  495000  0.083588408  0.036614515     241.0483 
  500000   0.07921713  0.074418494     241.0483 
  505000  0.079854091  0.071150423     241.0483 
  510000  0.083256934  0.043325224     241.0483 
  515000  0.078611761  0.078210396     241.0483 
  520000  0.086285059  0.018787493     241.0483 
  524288  0.082515802  0.048913599     241.0483 
Loop time of 146.307 on 1 procs for 524288 steps with 256 atoms

Pair  time (%) = 128.948 (88.1353)
Neigh time (%) = 0.01232 (0.00842068)
Comm  time (%) = 6.27788 (4.29089)
Outpt time (%) = 6.32784 (4.32504)
Other time (%) = 4.74082 (3.24032)

Nlocal:    256 ave 256 max 256 min
Histogram: 1 0 0 0 0 0 0 0 0 0
Nghost:    1431 ave 1431 max 1431 min
Histogram: 1 0 0 0 0 0 0 0 0 0
Neighs:    11007 ave 11007 max 11007 min
Histogram: 1 0 0 0 0 0 0 0 0 0

Total # of neighbors = 11007
Ave neighs/atom = 42.9961
Neighbor list builds = 18
Dangerous builds = 0
	unfix			1
	undump			vel

next ifft
jump lmp.in.sed.1 loop_fft

