
#------------ NVE rescale ---------------------------------------------------------------------	
	velocity 		all create ${T_run} ${seed} rot yes dist gaussian
	velocity 		all create 0.08267367665 ${seed} rot yes dist gaussian
	velocity 		all create 0.08267367665 11111 rot yes dist gaussian
	fix 			1 all nve
	fix 			2 all temp/rescale 1 ${T_run} ${T_run} 0.01 1.0
	fix 			2 all temp/rescale 1 0.08267367665 ${T_run} 0.01 1.0
	fix 			2 all temp/rescale 1 0.08267367665 0.08267367665 0.01 1.0
	timestep		${dt}
	timestep		0.002
	thermo_style  	custom step temp press etotal vol
	thermo			1000
	run             	100000	
Memory usage per processor = 1.38005 Mbytes
Step Temp Press TotEng Volume 
       0  0.082673677  -0.71664588   -7.3350923     241.0483 
    1000  0.088130071   0.01579472   -7.2074472     241.0483 
    2000  0.079257677  0.085327214   -7.2075234     241.0483 
    3000  0.084348293  0.036740687   -7.2075202     241.0483 
    4000  0.086348805  0.015164671   -7.2078339     241.0483 
    5000  0.085357306  0.029464304   -7.2078287     241.0483 
    6000  0.080041169  0.075586747   -7.2078367     241.0483 
    7000  0.079916257    0.0704344   -7.2078447     241.0483 
    8000  0.083241523  0.037830081   -7.2078456     241.0483 
    9000  0.082041428  0.050531065   -7.2078413     241.0483 
   10000   0.08423034  0.036846343    -7.207843     241.0483 
   11000   0.08060832 -0.028480493   -7.2229349     241.0483 
   12000  0.082932604  0.045898702   -7.2077425     241.0483 
   13000  0.091296232 -0.026726083   -7.2077397     241.0483 
   14000  0.085210389  0.023734582   -7.2077496     241.0483 
   15000   0.07665637 -0.0066911399   -7.2231963     241.0483 
   16000  0.080276639  0.063014385   -7.2081327     241.0483 
   17000  0.087551124   0.01002264   -7.2081381     241.0483 
   18000  0.089800889 -0.013235201   -7.2081447     241.0483 
   19000  0.081926789  0.053035481   -7.2081454     241.0483 
   20000   0.08078254  0.061398464   -7.2081424     241.0483 
   21000  0.083528372  0.038311133   -7.2081347     241.0483 
   22000  0.083465525  0.032921307   -7.2081341     241.0483 
   23000  0.085555799  0.020576829   -7.2081374     241.0483 
   24000  0.088689383 -0.0038175669     -7.20814     241.0483 
   25000   0.08522605  0.025536383   -7.2081475     241.0483 
   26000  0.082922145  0.038111117   -7.2081381     241.0483 
   27000   0.08636699  0.011491626   -7.2081396     241.0483 
   28000  0.082903709 -0.050444985   -7.2233574     241.0483 
   29000  0.081477649 -0.044018559   -7.2233528     241.0483 
   30000  0.088987347 -0.0044580933   -7.2082863     241.0483 
   31000  0.079163507 -0.018645566   -7.2234028     241.0483 
   32000  0.076935013 -0.0046200693   -7.2233969     241.0483 
   33000  0.085417989  0.018363115   -7.2083424     241.0483 
   34000  0.086942128 0.0054998732   -7.2083388     241.0483 
   35000  0.079545503   0.06607531   -7.2083292     241.0483 
   36000   0.08350239  0.034035989   -7.2083326     241.0483 
   37000  0.084773314  0.027329484   -7.2083226     241.0483 
   38000  0.084573368  0.024981832   -7.2083225     241.0483 
   39000  0.084784777  0.019712483   -7.2083249     241.0483 
   40000  0.087118183 0.0047060869   -7.2083219     241.0483 
   41000  0.086008712  0.012346203   -7.2083258     241.0483 
   42000  0.084347532  0.026975909     -7.20832     241.0483 
   43000   0.07876119 -0.017629298    -7.223767     241.0483 
   44000  0.083437556  0.038174473   -7.2085155     241.0483 
   45000  0.086493118  0.010026923   -7.2085128     241.0483 
   46000  0.079425091  0.065136543   -7.2085058     241.0483 
   47000  0.086544629  0.007006195   -7.2085112     241.0483 
   48000  0.083176886  0.029623474   -7.2085143     241.0483 
   49000  0.085662239  0.017323248   -7.2085142     241.0483 
   50000  0.076555347  0.087338397   -7.2086649     241.0483 
   51000  0.082306284  0.040027898   -7.2086646     241.0483 
   52000  0.084077335  0.027152761   -7.2086587     241.0483 
   53000  0.086420575 0.0048714364   -7.2086612     241.0483 
   54000  0.086840927  0.010002695   -7.2086708     241.0483 
   55000  0.081048782   0.05304424   -7.2086718     241.0483 
   56000  0.083725374  0.035296587   -7.2086753     241.0483 
   57000  0.082721477  0.037817507   -7.2086719     241.0483 
   58000   0.08688359 0.0043890516   -7.2086777     241.0483 
   59000  0.085292226  0.016326889   -7.2086812     241.0483 
   60000  0.086074004  0.014032595   -7.2086903     241.0483 
   61000  0.083083415  0.036329006   -7.2086966     241.0483 
   62000  0.081898228  0.043822345   -7.2086875     241.0483 
   63000  0.090151091 -0.020625787   -7.2086804     241.0483 
   64000  0.085166602  0.014038535   -7.2086718     241.0483 
   65000  0.086013071  0.013298282   -7.2086732     241.0483 
   66000  0.086335387  0.011884957   -7.2086759     241.0483 
   67000  0.082452748  0.042159719   -7.2086774     241.0483 
   68000  0.081754182  0.044022534   -7.2086801     241.0483 
   69000  0.081751922  0.046848018     -7.20867     241.0483 
   70000  0.087711122  -0.00362905   -7.2086714     241.0483 
   71000  0.075261315 0.0084034159    -7.223827     241.0483 
   72000  0.081407366  0.052263786   -7.2084646     241.0483 
   73000  0.083473319  0.032470701   -7.2084587     241.0483 
   74000   0.08619015  0.013341734   -7.2084641     241.0483 
   75000  0.083825922  0.032183474   -7.2084693     241.0483 
   76000  0.085822598  0.014359826   -7.2084759     241.0483 
   77000  0.084687033  0.022075603     -7.20848     241.0483 
   78000  0.076908188  0.080063906   -7.2084714     241.0483 
   79000  0.087659212 -0.0017408321   -7.2084781     241.0483 
   80000  0.088283324 -0.0083675329   -7.2081673     241.0483 
   81000  0.085343963  0.018860792    -7.208159     241.0483 
   82000  0.083979299  0.032900019   -7.2081649     241.0483 
   83000  0.089976105 -0.018188274    -7.208167     241.0483 
   84000  0.087874077 -0.0010924531   -7.2081736     241.0483 
   85000  0.086408541   0.01100631   -7.2081689     241.0483 
   86000  0.084489579  0.029731417   -7.2081726     241.0483 
   87000  0.082752211  0.044473726   -7.2081638     241.0483 
   88000  0.082569821 -0.051219837   -7.2231788     241.0483 
   89000  0.080054246  0.064973711   -7.2081862     241.0483 
   90000  0.084303998  0.034348341   -7.2081987     241.0483 
   91000  0.082641463 -0.048789147   -7.2232362     241.0483 
   92000  0.082534964  0.043918767   -7.2077782     241.0483 
   93000  0.082713562  0.039701071   -7.2077868     241.0483 
   94000  0.076011229 0.0013914922   -7.2227783     241.0483 
   95000  0.081349186 -0.037114408   -7.2227778     241.0483 
   96000  0.079446349 -0.023274426   -7.2227825     241.0483 
   97000  0.086871281 0.0067725634   -7.2075194     241.0483 
   98000  0.078644032  0.083706348   -7.2075204     241.0483 
   99000  0.082893722  0.044665235   -7.2075201     241.0483 
  100000  0.087158126  0.007822807    -7.207579     241.0483 
Loop time of 27.4699 on 1 procs for 100000 steps with 256 atoms

Pair  time (%) = 25.17 (91.6274)
Neigh time (%) = 0 (0)
Comm  time (%) = 1.25744 (4.5775)
Outpt time (%) = 0.0041604 (0.0151453)
Other time (%) = 1.03835 (3.77993)

Nlocal:    256 ave 256 max 256 min
Histogram: 1 0 0 0 0 0 0 0 0 0
Nghost:    1431 ave 1431 max 1431 min
Histogram: 1 0 0 0 0 0 0 0 0 0
Neighs:    11008 ave 11008 max 11008 min
Histogram: 1 0 0 0 0 0 0 0 0 0

Total # of neighbors = 11008
Ave neighs/atom = 43
Neighbor list builds = 0
Dangerous builds = 0
#	run             	1000
	unfix 			1
	unfix 			2
#------------ NVE -----------------------------------------------------------------------------	
	fix 			1 all nve
	timestep		${dt}
	timestep		0.002
	thermo_style  	custom step temp press etotal vol
	thermo			1000
	run             	250000	
Memory usage per processor = 1.38005 Mbytes
Step Temp Press TotEng Volume 
  100000  0.087158126  0.007822807    -7.207579     241.0483 
  101000  0.084576413  0.027534689    -7.207567     241.0483 
  102000  0.083221913  0.041524765    -7.207564     241.0483 
  103000  0.078984866  0.069585651   -7.2075591     241.0483 
  104000   0.08970824 -0.014586306   -7.2075634     241.0483 
  105000  0.082115405  0.048325994    -7.207562     241.0483 
  106000  0.088257621 -0.0035380764   -7.2075736     241.0483 
  107000  0.084700399   0.02803651   -7.2075689     241.0483 
  108000  0.079917905  0.063875601   -7.2075624     241.0483 
  109000  0.089134325 -0.0065435672   -7.2075678     241.0483 
  110000  0.084947735  0.026972002   -7.2075655     241.0483 
  111000  0.085735695  0.017292757   -7.2075689     241.0483 
  112000  0.086280046  0.019099375   -7.2075745     241.0483 
  113000  0.081816181  0.056452383   -7.2075775     241.0483 
  114000  0.081154231  0.059481332   -7.2075887     241.0483 
  115000  0.083339353  0.033306844   -7.2075878     241.0483 
  116000  0.084908741  0.026228838   -7.2075901     241.0483 
  117000  0.082865219  0.046705114    -7.207588     241.0483 
  118000  0.085293285  0.025147901   -7.2075818     241.0483 
  119000  0.086868478  0.011308797   -7.2075829     241.0483 
  120000  0.084586334  0.024993878   -7.2075818     241.0483 
  121000  0.084761511  0.025732515   -7.2075848     241.0483 
  122000  0.086813416  0.018409974   -7.2075862     241.0483 
  123000   0.08193248  0.051111726    -7.207583     241.0483 
  124000  0.085385644  0.022574146   -7.2075819     241.0483 
  125000  0.087334203 0.0039302382   -7.2075821     241.0483 
  126000  0.080404031  0.059390887   -7.2075789     241.0483 
  127000  0.085343114   0.01918944   -7.2075835     241.0483 
  128000  0.087656609 0.0075480153   -7.2075782     241.0483 
  129000   0.08613971  0.021064936   -7.2075799     241.0483 
  130000  0.079275766  0.074656761   -7.2075748     241.0483 
  131000  0.083285392  0.038078399   -7.2075811     241.0483 
  132000  0.088126032 0.00044275134   -7.2075826     241.0483 
  133000  0.081523881  0.056151226   -7.2075842     241.0483 
  134000  0.087122329  0.013157865   -7.2075844     241.0483 
  135000  0.082054052  0.056930859   -7.2075841     241.0483 
  136000  0.086311268  0.016247541   -7.2075832     241.0483 
  137000   0.08042189   0.06852147   -7.2075761     241.0483 
  138000  0.085367854  0.031688698   -7.2075768     241.0483 
  139000  0.088811746 0.00071269568   -7.2075833     241.0483 
  140000   0.08005104  0.067030464   -7.2075784     241.0483 
  141000  0.088619928 0.0018981876   -7.2075828     241.0483 
  142000  0.080648708  0.063610334   -7.2075807     241.0483 
  143000  0.085812645  0.024439031   -7.2075873     241.0483 
  144000  0.085607794  0.023140252   -7.2075914     241.0483 
  145000  0.083310282  0.035234877   -7.2075889     241.0483 
  146000  0.085486832  0.022846077   -7.2075982     241.0483 
  147000   0.08621307  0.018823714   -7.2075935     241.0483 
  148000  0.085111261  0.026240504   -7.2075983     241.0483 
  149000  0.088132834  0.005834086    -7.207587     241.0483 
  150000  0.080701678  0.057699647   -7.2075834     241.0483 
  151000  0.081621004  0.050361203    -7.207572     241.0483 
  152000  0.088763281 -0.0085197682    -7.207578     241.0483 
  153000  0.085440501  0.019874921   -7.2075782     241.0483 
  154000  0.081223022  0.062869762   -7.2075648     241.0483 
  155000  0.083618735  0.042153148   -7.2075715     241.0483 
  156000  0.084216678  0.033829541    -7.207575     241.0483 
  157000  0.087400767 0.0059937813   -7.2075736     241.0483 
  158000  0.080489889  0.061147684   -7.2075658     241.0483 
  159000  0.087631867 0.0046675526   -7.2075651     241.0483 
  160000  0.086683818  0.013121925    -7.207562     241.0483 
  161000  0.078013755  0.084374014   -7.2075564     241.0483 
  162000  0.080837024   0.05995666   -7.2075509     241.0483 
  163000   0.08213313  0.049604215   -7.2075557     241.0483 
  164000  0.084683426  0.031693785   -7.2075562     241.0483 
  165000  0.080468023     0.063216   -7.2075644     241.0483 
  166000  0.086276166  0.012447535   -7.2075656     241.0483 
  167000    0.0808323  0.056408299   -7.2075615     241.0483 
  168000  0.078771802  0.074801254   -7.2075608     241.0483 
  169000   0.08461047  0.027959141   -7.2075648     241.0483 
  170000  0.082940178  0.039546276   -7.2075617     241.0483 
  171000  0.084674852  0.027473989   -7.2075634     241.0483 
  172000  0.089876816 -0.012755808   -7.2075713     241.0483 
  173000  0.084277265    0.0313303   -7.2075716     241.0483 
  174000  0.082927063  0.042601265   -7.2075702     241.0483 
  175000  0.087449683  0.004235227   -7.2075672     241.0483 
  176000  0.079206306  0.067478663   -7.2075646     241.0483 
  177000  0.084825138  0.027837318   -7.2075694     241.0483 
  178000  0.087734949 -0.0015057374   -7.2075659     241.0483 
  179000  0.081811111  0.049243302   -7.2075578     241.0483 
  180000  0.085261299  0.028561735   -7.2075718     241.0483 
  181000  0.083762311  0.030312256   -7.2075675     241.0483 
  182000  0.081850771    0.0498136   -7.2075651     241.0483 
  183000  0.084590909  0.030743264   -7.2075698     241.0483 
  184000  0.089190847 -0.005568546   -7.2075695     241.0483 
  185000  0.082001595  0.056330422   -7.2075851     241.0483 
  186000  0.083280105  0.042013309   -7.2075863     241.0483 
  187000  0.088089533 -0.001462497   -7.2075888     241.0483 
  188000  0.081195366  0.056733805   -7.2075871     241.0483 
  189000  0.083191714  0.043440312   -7.2075834     241.0483 
  190000  0.085080029  0.022332663    -7.207576     241.0483 
  191000  0.086096629  0.015569404   -7.2075679     241.0483 
  192000   0.08492613  0.021537735   -7.2075725     241.0483 
  193000  0.087985187 0.0031327876   -7.2075744     241.0483 
  194000  0.078273975  0.078276997   -7.2075718     241.0483 
  195000  0.091240351 -0.020201066   -7.2075724     241.0483 
  196000  0.080803089  0.059402058   -7.2075673     241.0483 
  197000  0.083251517  0.041263163   -7.2075631     241.0483 
  198000  0.080333068   0.06417856   -7.2075647     241.0483 
  199000  0.087616996 0.0076463516   -7.2075585     241.0483 
  200000  0.085344088  0.022470284   -7.2075522     241.0483 
  201000  0.085743405  0.018309694   -7.2075509     241.0483 
  202000  0.083764234  0.032344601   -7.2075458     241.0483 
  203000  0.083334113  0.035022076   -7.2075438     241.0483 
  204000  0.080190715  0.064369546   -7.2075398     241.0483 
  205000  0.085727901  0.021703405   -7.2075442     241.0483 
  206000  0.086688388  0.011365747   -7.2075414     241.0483 
  207000  0.080090253   0.06160355   -7.2075378     241.0483 
  208000  0.086829611 0.0092040139   -7.2075528     241.0483 
  209000  0.081875903  0.049453748   -7.2075478     241.0483 
  210000  0.080922475  0.057224739   -7.2075529     241.0483 
  211000  0.087278924 0.0047451474   -7.2075617     241.0483 
  212000  0.089090707 -0.012227277   -7.2075586     241.0483 
  213000  0.083979721  0.038207901   -7.2075593     241.0483 
  214000  0.082870062   0.04628167   -7.2075612     241.0483 
  215000  0.077634472  0.085609723   -7.2075625     241.0483 
  216000  0.081536316  0.053754636   -7.2075597     241.0483 
  217000  0.085990375  0.017931624   -7.2075598     241.0483 
  218000  0.092110218 -0.027486399   -7.2075652     241.0483 
  219000   0.08767328 0.0037352177   -7.2075617     241.0483 
  220000  0.087950853 0.0058216731   -7.2075567     241.0483 
  221000  0.081434574  0.055291629   -7.2075566     241.0483 
  222000    0.0838887   0.03374653   -7.2075619     241.0483 
  223000  0.087708842  0.005619877   -7.2075626     241.0483 
  224000  0.082096848  0.048780355   -7.2075622     241.0483 
  225000   0.09108221 -0.024295609    -7.207564     241.0483 
  226000   0.08521608  0.023244004   -7.2075578     241.0483 
  227000   0.08289106  0.043118624   -7.2075592     241.0483 
  228000  0.082571329  0.042780412   -7.2075547     241.0483 
  229000  0.084431072  0.031138228   -7.2075632     241.0483 
  230000  0.082760376  0.048102706   -7.2075619     241.0483 
  231000  0.082190256  0.049648414   -7.2075579     241.0483 
  232000   0.08937713 -0.012025803   -7.2075614     241.0483 
  233000  0.082987493  0.041035237   -7.2075558     241.0483 
  234000  0.083486556  0.036932079   -7.2075642     241.0483 
  235000  0.083982016   0.03238632   -7.2075712     241.0483 
  236000  0.085209274  0.024370515   -7.2075677     241.0483 
  237000  0.084943548  0.024209723   -7.2075695     241.0483 
  238000  0.087420905 0.0048309287    -7.207577     241.0483 
  239000  0.084144339  0.034663309   -7.2075791     241.0483 
  240000  0.083221585  0.040577286   -7.2075783     241.0483 
  241000  0.085204552  0.029410381   -7.2075783     241.0483 
  242000  0.085659703  0.022246472   -7.2075726     241.0483 
  243000  0.084452489  0.031228444   -7.2075672     241.0483 
  244000  0.084710256  0.031267719   -7.2075647     241.0483 
  245000  0.084992064  0.029031386   -7.2075655     241.0483 
  246000  0.082729624  0.046577536   -7.2075582     241.0483 
  247000  0.090325672 -0.017625554   -7.2075611     241.0483 
  248000   0.08760168 0.0041849917   -7.2075564     241.0483 
  249000  0.077670209  0.088313302   -7.2075463     241.0483 
  250000  0.081358921  0.055263422   -7.2075421     241.0483 
  251000   0.08744751 0.0060806908   -7.2075388     241.0483 
  252000  0.086120992  0.019808884   -7.2075405     241.0483 
  253000  0.083591476  0.038705859   -7.2075328     241.0483 
  254000  0.086379403  0.019807644   -7.2075486     241.0483 
  255000  0.085219674  0.027883216   -7.2075411     241.0483 
  256000  0.086857729  0.010368292   -7.2075448     241.0483 
  257000  0.084741321  0.029719187   -7.2075419     241.0483 
  258000  0.081941091  0.052976101   -7.2075401     241.0483 
  259000  0.088719179 -0.0058116063   -7.2075526     241.0483 
  260000  0.084211104  0.033591411   -7.2075499     241.0483 
  261000  0.082092103  0.050343957   -7.2075545     241.0483 
  262000  0.083494555  0.041152939   -7.2075558     241.0483 
  263000  0.085340356  0.023456208   -7.2075592     241.0483 
  264000  0.084859218  0.027489467   -7.2075508     241.0483 
  265000  0.086775115  0.013425063   -7.2075512     241.0483 
  266000  0.086606168  0.011421451   -7.2075588     241.0483 
  267000  0.082615189  0.047354509   -7.2075547     241.0483 
  268000  0.083476266  0.039610154   -7.2075602     241.0483 
  269000  0.083431285  0.034985166   -7.2075649     241.0483 
  270000  0.087744194 0.0088883199    -7.207575     241.0483 
  271000  0.081499211  0.062195981   -7.2075722     241.0483 
  272000  0.080847621   0.06424153   -7.2075704     241.0483 
  273000  0.081891403  0.050508046   -7.2075688     241.0483 
  274000    0.0882953  0.000948459   -7.2075617     241.0483 
  275000  0.081136498  0.060078725    -7.207563     241.0483 
  276000   0.08314354   0.04333652   -7.2075745     241.0483 
  277000  0.084751265  0.029420143   -7.2075722     241.0483 
  278000   0.08780842 0.0048378739   -7.2075781     241.0483 
  279000  0.080235174  0.065800538   -7.2075827     241.0483 
  280000  0.084445737  0.032383467   -7.2075846     241.0483 
  281000  0.085901761  0.020019227   -7.2075941     241.0483 
  282000  0.084994927  0.030971456      -7.2076     241.0483 
  283000  0.085743923     0.018159   -7.2075973     241.0483 
  284000  0.083262334  0.036141219   -7.2075917     241.0483 
  285000  0.085681244  0.018824101   -7.2075925     241.0483 
  286000  0.085789857  0.020448547   -7.2075906     241.0483 
  287000  0.085638763  0.020804774     -7.20759     241.0483 
  288000  0.083144513  0.041645622   -7.2075838     241.0483 
  289000  0.082517524  0.048222206    -7.207581     241.0483 
  290000  0.088188194 0.00052217774   -7.2075794     241.0483 
  291000  0.083943885  0.033499745   -7.2075703     241.0483 
  292000  0.082086489  0.049723162   -7.2075726     241.0483 
  293000   0.09018772 -0.012189566   -7.2075821     241.0483 
  294000  0.092909085 -0.034110851   -7.2075876     241.0483 
  295000  0.087838805 -0.00082105843   -7.2075911     241.0483 
  296000   0.08324154  0.040187874   -7.2075832     241.0483 
  297000  0.085175294  0.025061987   -7.2075826     241.0483 
  298000  0.084591187  0.027122253   -7.2075855     241.0483 
  299000  0.087742834 0.0057985616   -7.2075865     241.0483 
  300000  0.086744286   0.01718912   -7.2075826     241.0483 
  301000  0.080138443  0.070582859   -7.2075697     241.0483 
  302000  0.084449843  0.030525178   -7.2075686     241.0483 
  303000  0.092142644 -0.032377206   -7.2075723     241.0483 
  304000  0.082666253  0.045467248   -7.2075698     241.0483 
  305000  0.087998373 0.0092577375   -7.2075711     241.0483 
  306000  0.086933227  0.015364522   -7.2075782     241.0483 
  307000  0.084634667  0.026903979   -7.2075794     241.0483 
  308000  0.082774499  0.044314995   -7.2075787     241.0483 
  309000  0.080129025  0.070470723   -7.2075754     241.0483 
  310000  0.080066281  0.070990264   -7.2075658     241.0483 
  311000  0.083504102  0.043121212   -7.2075707     241.0483 
  312000  0.086131074  0.016030602   -7.2075675     241.0483 
  313000   0.08419877  0.035762129   -7.2075679     241.0483 
  314000  0.081086619  0.059574913   -7.2075616     241.0483 
  315000  0.084850388  0.021289336   -7.2075637     241.0483 
  316000  0.083998254  0.035740046   -7.2075635     241.0483 
  317000    0.0826133  0.043231257    -7.207555     241.0483 
  318000  0.081444449  0.054005614   -7.2075545     241.0483 
  319000  0.085250072  0.024843673    -7.207553     241.0483 
  320000  0.084285778  0.030106621   -7.2075596     241.0483 
  321000  0.079372412  0.065378497   -7.2075513     241.0483 
  322000  0.084765093  0.028403307   -7.2075483     241.0483 
  323000  0.089729326 -0.013349403   -7.2075585     241.0483 
  324000  0.081192881  0.053332942   -7.2075538     241.0483 
  325000  0.088118195 0.0013278084   -7.2075583     241.0483 
  326000  0.082677028  0.042332524   -7.2075531     241.0483 
  327000  0.083791733  0.039683721   -7.2075474     241.0483 
  328000  0.083379673  0.044070365   -7.2075439     241.0483 
  329000  0.081591051  0.051664156   -7.2075444     241.0483 
  330000  0.085128535  0.026848667   -7.2075392     241.0483 
  331000  0.089388986 -0.002691022   -7.2075382     241.0483 
  332000  0.081078356  0.059178156   -7.2075321     241.0483 
  333000  0.083963727   0.03462626   -7.2075275     241.0483 
  334000  0.085158158  0.024835458   -7.2075341     241.0483 
  335000  0.080682604  0.065547499   -7.2075337     241.0483 
  336000  0.084698162  0.029722194   -7.2075332     241.0483 
  337000   0.09259351 -0.031929556   -7.2075411     241.0483 
  338000  0.076531341  0.098030857    -7.207534     241.0483 
  339000  0.089450707 -0.0054300131   -7.2075322     241.0483 
  340000  0.081629383  0.054213909   -7.2075178     241.0483 
  341000  0.090138587 -0.013561214   -7.2075255     241.0483 
  342000  0.079774604  0.070102481   -7.2075237     241.0483 
  343000  0.083625441  0.037349973   -7.2075231     241.0483 
  344000  0.084452775  0.032369574   -7.2075211     241.0483 
  345000   0.08196106    0.0548849   -7.2075236     241.0483 
  346000  0.088017159 0.0030095282   -7.2075335     241.0483 
  347000  0.086426164  0.018610042   -7.2075332     241.0483 
  348000  0.087425265 0.0080559013    -7.207536     241.0483 
  349000  0.082868173  0.041667485   -7.2075169     241.0483 
  350000  0.082191129   0.04739662   -7.2075222     241.0483 
Loop time of 67.8222 on 1 procs for 250000 steps with 256 atoms

Pair  time (%) = 62.4407 (92.0653)
Neigh time (%) = 0.0111153 (0.0163889)
Comm  time (%) = 3.07863 (4.53927)
Outpt time (%) = 0.0103579 (0.0152721)
Other time (%) = 2.28137 (3.36376)

Nlocal:    256 ave 256 max 256 min
Histogram: 1 0 0 0 0 0 0 0 0 0
Nghost:    1431 ave 1431 max 1431 min
Histogram: 1 0 0 0 0 0 0 0 0 0
Neighs:    11008 ave 11008 max 11008 min
Histogram: 1 0 0 0 0 0 0 0 0 0

Total # of neighbors = 11008
Ave neighs/atom = 43
Neighbor list builds = 17
Dangerous builds = 0
#	run             	10000
	unfix 			1
#------SED-------------------------------------------------------------------------
label loop_fft
variable ifft loop ${num_ffts}
variable ifft loop 1

log 	log_SED_${iseed}_${ifft}.lammps
log 	log_SED_1_${ifft}.lammps
log 	log_SED_1_1.lammps
