********************************************************************************
*                       GENERAL UTILITY LATTICE PROGRAM                        *
*                                 Julian Gale                                  *
*                      Nanochemistry Research Institute                        *
*                           Department of Chemistry                            *
*                    Curtin University, Western Australia                      *
********************************************************************************
* Version = 4.1.0 * Last modified =  21st June 2013                            *
********************************************************************************
*  single       - perform a single point run                                   *
*  phonon       - calculate phonons for final geometry                         *
********************************************************************************

  Job Started  at 18:04.38 28th August     2013                               

  Number of CPUs =     1


  Total number of configurations input =   1

********************************************************************************
*  Input for Configuration =   1                                               *
********************************************************************************

  Formula = Ar4                                                         

  Number of irreducible atoms/shells =       4


  Total number atoms/shells =       4

  Dimensionality = 3               :  Bulk   



  Cartesian lattice vectors (Angstroms) :

        5.316200    0.000000    0.000000
        0.000000    5.316200    0.000000
        0.000000    0.000000    5.316200

  Cell parameters (Angstroms/Degrees):

  a =       5.3162    alpha =  90.0000
  b =       5.3162    beta  =  90.0000
  c =       5.3162    gamma =  90.0000

  Initial cell volume =         150.246351 Angs**3

  Temperature of configuration =  0.000     K 

  Pressure of configuration =         0.000 GPa 

  Fractional coordinates of asymmetric unit :

--------------------------------------------------------------------------------
   No.  Atomic       x           y          z         Charge      Occupancy
        Label      (Frac)      (Frac)     (Frac)        (e)         (Frac)  
--------------------------------------------------------------------------------
      1 Ar1   c    0.000000    0.000000    0.000000     0.00000    1.000000    
      2 Ar1   c    0.500000    0.500000    0.000000     0.00000    1.000000    
      3 Ar1   c    0.500000    0.000000    0.500000     0.00000    1.000000    
      4 Ar1   c    0.000000    0.500000    0.500000     0.00000    1.000000    
--------------------------------------------------------------------------------


  Brillouin zone sampling points :

--------------------------------------------------------------------------------
  Point number          x          y          z            Weight
--------------------------------------------------------------------------------
        1           0.500000   0.000000   0.000000         1.0000
--------------------------------------------------------------------------------


********************************************************************************
*  General input information                                                   *
********************************************************************************

  Species output for all configurations : 

--------------------------------------------------------------------------------
  Species    Type    Atomic    Atomic    Charge       Radii (Angs)     Library
                     Number     Mass       (e)     Cova   Ionic  VDW   Symbol
--------------------------------------------------------------------------------
    Ar1      Core       18      39.95   0.000000   0.000  0.000  0.000          
--------------------------------------------------------------------------------


  Lattice summation method               =    Ewald          (3-D)
                                         =    Parry          (2-D)
                                         =    Saunders et al (1-D)
  Accuracy factor for lattice sums       =   12.000


  Time limit = Infinity

  Maximum range for interatomic potentials =    100000.000000 Angstroms

  General interatomic potentials :

--------------------------------------------------------------------------------
Atom  Types   Potential         A         B         C         D     Cutoffs(Ang)
  1     2                                                            Min    Max 
--------------------------------------------------------------------------------
Ar1  c Ar1  c Lennard 12  6 0.995E+05  64.4      0.00      0.00     0.000  8.500
--------------------------------------------------------------------------------

********************************************************************************
*  Output for configuration   1                                                *
********************************************************************************


  Components of energy : 

--------------------------------------------------------------------------------
  Interatomic potentials     =          -0.33676960 eV
  Monopole - monopole (real) =           0.00000000 eV
  Monopole - monopole (recip)=           0.00000000 eV
  Monopole - monopole (total)=           0.00000000 eV
--------------------------------------------------------------------------------
  Total lattice energy       =          -0.33676960 eV
--------------------------------------------------------------------------------
  Total lattice energy       =             -32.4931 kJ/(mole unit cells)
--------------------------------------------------------------------------------


  Elastic Constant Matrix: (Units=GPa)

-------------------------------------------------------------------------------
  Indices      1         2         3         4         5         6    
-------------------------------------------------------------------------------
       1      3.4672    1.9312    1.9312    0.0000    0.0000   -0.0000
       2      1.9312    3.4672    1.9312   -0.0000    0.0000   -0.0000
       3      1.9312    1.9312    3.4672    0.0000   -0.0000   -0.0000
       4      0.0000   -0.0000    0.0000    2.0029   -0.0000    0.0000
       5      0.0000    0.0000   -0.0000   -0.0000    2.0029   -0.0000
       6     -0.0000   -0.0000   -0.0000    0.0000   -0.0000    2.0029
-------------------------------------------------------------------------------


  Elastic Compliance Matrix: (Units=1/GPa)

-------------------------------------------------------------------------------
  Indices      1         2         3         4         5         6    
-------------------------------------------------------------------------------
       1    0.479509 -0.171539 -0.171539 -0.000000 -0.000000 -0.000000
       2   -0.171539  0.479509 -0.171539  0.000000  0.000000  0.000000
       3   -0.171539 -0.171539  0.479509 -0.000000  0.000000 -0.000000
       4   -0.000000  0.000000 -0.000000  0.499286  0.000000  0.000000
       5   -0.000000  0.000000  0.000000  0.000000  0.499286 -0.000000
       6   -0.000000  0.000000 -0.000000  0.000000 -0.000000  0.499286
-------------------------------------------------------------------------------

  Mechanical properties :

-------------------------------------------------------------------------------
  Convention :                    Reuss         Voigt         Hill
-------------------------------------------------------------------------------
  Bulk  Modulus (GPa)     =       2.44323       2.44323       2.44323
  Shear Modulus (GPa)     =       1.21890       1.50891       1.36391
-------------------------------------------------------------------------------
  Velocity S-wave (km/s)  =       0.83077       0.92433       0.87880
  Velocity P-wave (km/s)  =       1.51778       1.58828       1.55343
-------------------------------------------------------------------------------
  Compressibility (1/GPa) =    0.40929460
-------------------------------------------------------------------------------
  Stress axis :                     x             y             z
-------------------------------------------------------------------------------
  Youngs Moduli (GPa)     =       2.08547       2.08547       2.08547
-------------------------------------------------------------------------------
  Poissons Ratio (x)      =                     0.35774       0.35774
  Poissons Ratio (y)      =       0.35774                     0.35774
  Poissons Ratio (z)      =       0.35774       0.35774
-------------------------------------------------------------------------------


  Piezoelectric Strain Matrix: (Units=C/m**2)

-------------------------------------------------------------------------------
  Indices      1         2         3         4         5         6    
-------------------------------------------------------------------------------
       x    -0.00000  -0.00000  -0.00000  -0.00000  -0.00000  -0.00000
       y    -0.00000  -0.00000  -0.00000  -0.00000  -0.00000  -0.00000
       z    -0.00000  -0.00000  -0.00000  -0.00000  -0.00000  -0.00000
-------------------------------------------------------------------------------


  Piezoelectric Stress Matrix: (Units=10**-11 C/N)

-------------------------------------------------------------------------------
  Indices      1         2         3         4         5         6    
-------------------------------------------------------------------------------
       x     0.00000   0.00000   0.00000   0.00000   0.00000   0.00000
       y     0.00000   0.00000   0.00000   0.00000   0.00000   0.00000
       z     0.00000   0.00000   0.00000   0.00000   0.00000   0.00000
-------------------------------------------------------------------------------


  Static dielectric constant tensor : 

-------------------------------------------------------------------------------
              x         y         z
-------------------------------------------------------------------------------
       x     1.00000   0.00000   0.00000
       y     0.00000   1.00000   0.00000
       z     0.00000   0.00000   1.00000
--------------------------------------------------------------------------------

  Static refractive indices : 

-------------------------------------------------------------------------------
    1 =    1.00000      2 =    1.00000      3 =    1.00000
-------------------------------------------------------------------------------


  Phonon Calculation : 

  Number of k points for this configuration =        1

--------------------------------------------------------------------------------
  K point      1 =   0.500000  0.000000  0.000000  Weight =    1.000
--------------------------------------------------------------------------------

  Frequencies (cm-1) [NB: Negative implies an imaginary mode]:

   29.90   29.90   29.90   29.90   41.54   41.54   41.58   41.58   52.69
   52.69   52.69   52.69


--------------------------------------------------------------------------------
  Phonon properties (per mole of unit cells): Temperature =      0.000 K
--------------------------------------------------------------------------------
  Zero point energy            =        0.030786 eV
--------------------------------------------------------------------------------

  Phonon density of states : 

--------------------------------------------------------------------------------
 Frequency (cm-1) Density of States                                             
--------------------------------------------------------------------------------
    0.00000 |                                                              0.000
    0.82335 |                                                              0.000
    1.64669 |                                                              0.000
    2.47004 |                                                              0.000
    3.29339 |                                                              0.000
    4.11674 |                                                              0.000
    4.94008 |                                                              0.000
    5.76343 |                                                              0.000
    6.58678 |                                                              0.000
    7.41012 |                                                              0.000
    8.23347 |                                                              0.000
    9.05682 |                                                              0.000
    9.88016 |                                                              0.000
   10.70351 |                                                              0.000
   11.52686 |                                                              0.000
   12.35021 |                                                              0.000
   13.17355 |                                                              0.000
   13.99690 |                                                              0.000
   14.82025 |                                                              0.000
   15.64359 |                                                              0.000
   16.46694 |                                                              0.000
   17.29029 |                                                              0.000
   18.11363 |                                                              0.000
   18.93698 |                                                              0.000
   19.76033 |                                                              0.000
   20.58368 |                                                              0.000
   21.40702 |                                                              0.000
   22.23037 |                                                              0.000
   23.05372 |                                                              0.000
   23.87706 |                                                              0.000
   24.70041 |                                                              0.000
   25.52376 |                                                              0.000
   26.34710 |                                                              0.000
   27.17045 |                                                              0.000
   27.99380 |                                                              0.000
   28.81715 |                                                              0.000
   29.64049 |************************************************************  0.333
   30.46384 |                                                              0.000
   31.28719 |                                                              0.000
   32.11053 |                                                              0.000
   32.93388 |                                                              0.000
   33.75723 |                                                              0.000
   34.58058 |                                                              0.000
   35.40392 |                                                              0.000
   36.22727 |                                                              0.000
   37.05062 |                                                              0.000
   37.87396 |                                                              0.000
   38.69731 |                                                              0.000
   39.52066 |                                                              0.000
   40.34400 |                                                              0.000
   41.16735 |************************************************************  0.333
   41.99070 |                                                              0.000
   42.81405 |                                                              0.000
   43.63739 |                                                              0.000
   44.46074 |                                                              0.000
   45.28409 |                                                              0.000
   46.10743 |                                                              0.000
   46.93078 |                                                              0.000
   47.75413 |                                                              0.000
   48.57747 |                                                              0.000
   49.40082 |                                                              0.000
   50.22417 |                                                              0.000
   51.04752 |                                                              0.000
   51.87086 |************************************************************  0.333
--------------------------------------------------------------------------------



  Time to end of properties =       0.0160 seconds


  Peak dynamic memory used =       0.47 MB 


  Timing analysis for GULP :

--------------------------------------------------------------------------------
  Task / Subroutine                                          Time (Seconds)
--------------------------------------------------------------------------------
--------------------------------------------------------------------------------
  Total CPU time                                                  0.0160
--------------------------------------------------------------------------------


  Job Finished at 18:04.38 28th August     2013                               

