********************************************************************************
*                       GENERAL UTILITY LATTICE PROGRAM                        *
*                                 Julian Gale                                  *
*                      Nanochemistry Research Institute                        *
*                           Department of Chemistry                            *
*                    Curtin University, Western Australia                      *
********************************************************************************
* Version = 4.1.0 * Last modified =  21st June 2013                            *
********************************************************************************
*  single       - perform a single point run                                   *
*  phonon       - calculate phonons for final geometry                         *
********************************************************************************

  Job Started  at 18:05.06 28th August     2013                               

  Number of CPUs =     1


  Total number of configurations input =   1

********************************************************************************
*  Input for Configuration =   1                                               *
********************************************************************************

  Formula = Ar                                                          

  Number of irreducible atoms/shells =       1


  Total number atoms/shells =       1

  Dimensionality = 3               :  Bulk   



  Cartesian lattice vectors (Angstroms) :

        2.658100    2.658100    0.000000
        2.658100    0.000000    2.658100
        0.000000    2.658100    2.658100

  Cell parameters (Angstroms/Degrees):

  a =       3.7591    alpha =  60.0000
  b =       3.7591    beta  =  60.0000
  c =       3.7591    gamma =  60.0000

  Initial cell volume =          37.561588 Angs**3

  Temperature of configuration =  0.000     K 

  Pressure of configuration =         0.000 GPa 

  Fractional coordinates of asymmetric unit :

--------------------------------------------------------------------------------
   No.  Atomic       x           y          z         Charge      Occupancy
        Label      (Frac)      (Frac)     (Frac)        (e)         (Frac)  
--------------------------------------------------------------------------------
      1 Ar1   c    0.000000    0.000000    0.000000     0.00000    1.000000    
--------------------------------------------------------------------------------


  Brillouin zone sampling points :

--------------------------------------------------------------------------------
  Point number          x          y          z            Weight
--------------------------------------------------------------------------------
        1           0.500000   0.000000   0.000000         1.0000
--------------------------------------------------------------------------------


********************************************************************************
*  General input information                                                   *
********************************************************************************

  Species output for all configurations : 

--------------------------------------------------------------------------------
  Species    Type    Atomic    Atomic    Charge       Radii (Angs)     Library
                     Number     Mass       (e)     Cova   Ionic  VDW   Symbol
--------------------------------------------------------------------------------
    Ar1      Core       18      39.95   0.000000   0.000  0.000  0.000          
--------------------------------------------------------------------------------


  Lattice summation method               =    Ewald          (3-D)
                                         =    Parry          (2-D)
                                         =    Saunders et al (1-D)
  Accuracy factor for lattice sums       =   12.000


  Time limit = Infinity

  Maximum range for interatomic potentials =    100000.000000 Angstroms

  General interatomic potentials :

--------------------------------------------------------------------------------
Atom  Types   Potential         A         B         C         D     Cutoffs(Ang)
  1     2                                                            Min    Max 
--------------------------------------------------------------------------------
Ar1  c Ar1  c Lennard 12  6 0.995E+05  64.4      0.00      0.00     0.000  8.500
--------------------------------------------------------------------------------

********************************************************************************
*  Output for configuration   1                                                *
********************************************************************************


  Components of energy : 

--------------------------------------------------------------------------------
  Interatomic potentials     =          -0.08419240 eV
  Monopole - monopole (real) =           0.00000000 eV
  Monopole - monopole (recip)=           0.00000000 eV
  Monopole - monopole (total)=           0.00000000 eV
--------------------------------------------------------------------------------
  Total lattice energy       =          -0.08419240 eV
--------------------------------------------------------------------------------
  Total lattice energy       =              -8.1233 kJ/(mole unit cells)
--------------------------------------------------------------------------------


  Elastic Constant Matrix: (Units=GPa)

-------------------------------------------------------------------------------
  Indices      1         2         3         4         5         6    
-------------------------------------------------------------------------------
       1      3.4672    1.9312    1.9312    0.0000   -0.0000    0.0000
       2      1.9312    3.4672    1.9312   -0.0000    0.0000    0.0000
       3      1.9312    1.9312    3.4672   -0.0000   -0.0000    0.0000
       4      0.0000   -0.0000   -0.0000    2.0029    0.0000    0.0000
       5     -0.0000    0.0000   -0.0000    0.0000    2.0029    0.0000
       6      0.0000    0.0000    0.0000    0.0000    0.0000    2.0029
-------------------------------------------------------------------------------


  Elastic Compliance Matrix: (Units=1/GPa)

-------------------------------------------------------------------------------
  Indices      1         2         3         4         5         6    
-------------------------------------------------------------------------------
       1    0.479509 -0.171539 -0.171539 -0.000000  0.000000 -0.000000
       2   -0.171539  0.479509 -0.171539  0.000000 -0.000000 -0.000000
       3   -0.171539 -0.171539  0.479509  0.000000  0.000000  0.000000
       4   -0.000000  0.000000  0.000000  0.499286 -0.000000 -0.000000
       5    0.000000 -0.000000  0.000000 -0.000000  0.499286 -0.000000
       6   -0.000000 -0.000000  0.000000 -0.000000 -0.000000  0.499286
-------------------------------------------------------------------------------

  Mechanical properties :

-------------------------------------------------------------------------------
  Convention :                    Reuss         Voigt         Hill
-------------------------------------------------------------------------------
  Bulk  Modulus (GPa)     =       2.44323       2.44323       2.44323
  Shear Modulus (GPa)     =       1.21890       1.50891       1.36391
-------------------------------------------------------------------------------
  Velocity S-wave (km/s)  =       0.83077       0.92433       0.87880
  Velocity P-wave (km/s)  =       1.51778       1.58828       1.55343
-------------------------------------------------------------------------------
  Compressibility (1/GPa) =    0.40929460
-------------------------------------------------------------------------------
  Stress axis :                     x             y             z
-------------------------------------------------------------------------------
  Youngs Moduli (GPa)     =       2.08547       2.08547       2.08547
-------------------------------------------------------------------------------
  Poissons Ratio (x)      =                     0.35774       0.35774
  Poissons Ratio (y)      =       0.35774                     0.35774
  Poissons Ratio (z)      =       0.35774       0.35774
-------------------------------------------------------------------------------


  Piezoelectric Strain Matrix: (Units=C/m**2)

-------------------------------------------------------------------------------
  Indices      1         2         3         4         5         6    
-------------------------------------------------------------------------------
       x     0.00000   0.00000   0.00000   0.00000   0.00000   0.00000
       y     0.00000   0.00000   0.00000   0.00000   0.00000   0.00000
       z     0.00000   0.00000   0.00000   0.00000   0.00000   0.00000
-------------------------------------------------------------------------------


  Piezoelectric Stress Matrix: (Units=10**-11 C/N)

-------------------------------------------------------------------------------
  Indices      1         2         3         4         5         6    
-------------------------------------------------------------------------------
       x     0.00000   0.00000   0.00000   0.00000   0.00000   0.00000
       y     0.00000   0.00000   0.00000   0.00000   0.00000   0.00000
       z     0.00000   0.00000   0.00000   0.00000   0.00000   0.00000
-------------------------------------------------------------------------------


  Static dielectric constant tensor : 

-------------------------------------------------------------------------------
              x         y         z
-------------------------------------------------------------------------------
       x     1.00000   0.00000   0.00000
       y     0.00000   1.00000   0.00000
       z     0.00000   0.00000   1.00000
--------------------------------------------------------------------------------

  Static refractive indices : 

-------------------------------------------------------------------------------
    1 =    1.00000      2 =    1.00000      3 =    1.00000
-------------------------------------------------------------------------------


  Phonon Calculation : 

  Number of k points for this configuration =        1

--------------------------------------------------------------------------------
  K point      1 =   0.500000  0.000000  0.000000  Weight =    1.000
--------------------------------------------------------------------------------

  Frequencies (cm-1) [NB: Negative implies an imaginary mode]:

   28.11   28.11   61.01


--------------------------------------------------------------------------------
  Phonon properties (per mole of unit cells): Temperature =      0.000 K
--------------------------------------------------------------------------------
  Zero point energy            =        0.007267 eV
--------------------------------------------------------------------------------

  Phonon density of states : 

--------------------------------------------------------------------------------
 Frequency (cm-1) Density of States                                             
--------------------------------------------------------------------------------
    0.00000 |                                                              0.000
    0.95321 |                                                              0.000
    1.90641 |                                                              0.000
    2.85962 |                                                              0.000
    3.81282 |                                                              0.000
    4.76603 |                                                              0.000
    5.71924 |                                                              0.000
    6.67244 |                                                              0.000
    7.62565 |                                                              0.000
    8.57886 |                                                              0.000
    9.53206 |                                                              0.000
   10.48527 |                                                              0.000
   11.43847 |                                                              0.000
   12.39168 |                                                              0.000
   13.34489 |                                                              0.000
   14.29809 |                                                              0.000
   15.25130 |                                                              0.000
   16.20450 |                                                              0.000
   17.15771 |                                                              0.000
   18.11092 |                                                              0.000
   19.06412 |                                                              0.000
   20.01733 |                                                              0.000
   20.97054 |                                                              0.000
   21.92374 |                                                              0.000
   22.87695 |                                                              0.000
   23.83015 |                                                              0.000
   24.78336 |                                                              0.000
   25.73657 |                                                              0.000
   26.68977 |                                                              0.000
   27.64298 |************************************************************  0.667
   28.59618 |                                                              0.000
   29.54939 |                                                              0.000
   30.50260 |                                                              0.000
   31.45580 |                                                              0.000
   32.40901 |                                                              0.000
   33.36221 |                                                              0.000
   34.31542 |                                                              0.000
   35.26863 |                                                              0.000
   36.22183 |                                                              0.000
   37.17504 |                                                              0.000
   38.12825 |                                                              0.000
   39.08145 |                                                              0.000
   40.03466 |                                                              0.000
   40.98786 |                                                              0.000
   41.94107 |                                                              0.000
   42.89428 |                                                              0.000
   43.84748 |                                                              0.000
   44.80069 |                                                              0.000
   45.75389 |                                                              0.000
   46.70710 |                                                              0.000
   47.66031 |                                                              0.000
   48.61351 |                                                              0.000
   49.56672 |                                                              0.000
   50.51993 |                                                              0.000
   51.47313 |                                                              0.000
   52.42634 |                                                              0.000
   53.37954 |                                                              0.000
   54.33275 |                                                              0.000
   55.28596 |                                                              0.000
   56.23916 |                                                              0.000
   57.19237 |                                                              0.000
   58.14557 |                                                              0.000
   59.09878 |                                                              0.000
   60.05199 |******************************                                0.333
--------------------------------------------------------------------------------



  Time to end of properties =       0.0040 seconds


  Peak dynamic memory used =       0.46 MB 


  Timing analysis for GULP :

--------------------------------------------------------------------------------
  Task / Subroutine                                          Time (Seconds)
--------------------------------------------------------------------------------
--------------------------------------------------------------------------------
  Total CPU time                                                  0.0040
--------------------------------------------------------------------------------


  Job Finished at 18:05.06 28th August     2013                               

