********************************************************************************
*                       GENERAL UTILITY LATTICE PROGRAM                        *
*                                 Julian Gale                                  *
*                      Nanochemistry Research Institute                        *
*                           Department of Chemistry                            *
*                    Curtin University, Western Australia                      *
********************************************************************************
* Version = 4.1.0 * Last modified =  21st June 2013                            *
********************************************************************************
*  single       - perform a single point run                                   *
*  phonon       - calculate phonons for final geometry                         *
********************************************************************************

  Job Started  at 02:26.38 20th July       2013                               

  Number of CPUs =     1


  Total number of configurations input =   1

********************************************************************************
*  Input for Configuration =   1                                               *
********************************************************************************

  Formula = Si2                                                         

  Number of irreducible atoms/shells =       2


  Total number atoms/shells =       2

  Dimensionality = 3               :  Bulk   



  Cartesian lattice vectors (Angstroms) :

        3.840200    0.000000    0.000000
        1.920100    3.325711    0.000000
        1.920100    1.108570    3.135510

  Cell parameters (Angstroms/Degrees):

  a =       3.8402    alpha =  60.0000
  b =       3.8402    beta  =  60.0000
  c =       3.8402    gamma =  60.0000

  Initial cell volume =          40.044837 Angs**3

  Temperature of configuration =  0.000     K 

  Pressure of configuration =         0.000 GPa 

  Fractional coordinates of asymmetric unit :

--------------------------------------------------------------------------------
   No.  Atomic       x           y          z         Charge      Occupancy
        Label      (Frac)      (Frac)     (Frac)        (e)         (Frac)  
--------------------------------------------------------------------------------
      1 Si1   c    0.000000    0.000000    0.000000     0.00000    1.000000    
      2 Si1   c    0.250000    0.250000    0.250000     0.00000    1.000000    
--------------------------------------------------------------------------------


  Brillouin zone sampling points :

--------------------------------------------------------------------------------
  Point number          x          y          z            Weight
--------------------------------------------------------------------------------
        1           0.000000   0.000000   0.000000         0.0333
        2           0.017241   0.000000   0.000000         0.0333
        3           0.034483   0.000000   0.000000         0.0333
        4           0.051724   0.000000   0.000000         0.0333
        5           0.068966   0.000000   0.000000         0.0333
        6           0.086207   0.000000   0.000000         0.0333
        7           0.103448   0.000000   0.000000         0.0333
        8           0.120690   0.000000   0.000000         0.0333
        9           0.137931   0.000000   0.000000         0.0333
       10           0.155172   0.000000   0.000000         0.0333
       11           0.172414   0.000000   0.000000         0.0333
       12           0.189655   0.000000   0.000000         0.0333
       13           0.206897   0.000000   0.000000         0.0333
       14           0.224138   0.000000   0.000000         0.0333
       15           0.241379   0.000000   0.000000         0.0333
       16           0.258621   0.000000   0.000000         0.0333
       17           0.275862   0.000000   0.000000         0.0333
       18           0.293103   0.000000   0.000000         0.0333
       19           0.310345   0.000000   0.000000         0.0333
       20           0.327586   0.000000   0.000000         0.0333
       21           0.344828   0.000000   0.000000         0.0333
       22           0.362069   0.000000   0.000000         0.0333
       23           0.379310   0.000000   0.000000         0.0333
       24           0.396552   0.000000   0.000000         0.0333
       25           0.413793   0.000000   0.000000         0.0333
       26           0.431034   0.000000   0.000000         0.0333
       27           0.448276   0.000000   0.000000         0.0333
       28           0.465517   0.000000   0.000000         0.0333
       29           0.482759   0.000000   0.000000         0.0333
       30           0.500000   0.000000   0.000000         0.0333
--------------------------------------------------------------------------------


********************************************************************************
*  General input information                                                   *
********************************************************************************

  Species output for all configurations : 

--------------------------------------------------------------------------------
  Species    Type    Atomic    Atomic    Charge       Radii (Angs)     Library
                     Number     Mass       (e)     Cova   Ionic  VDW   Symbol
--------------------------------------------------------------------------------
    Si1      Core       14      45.51   0.000000   1.200  0.000  2.100          
--------------------------------------------------------------------------------


  Lattice summation method               =    Ewald          (3-D)
                                         =    Parry          (2-D)
                                         =    Saunders et al (1-D)
  Accuracy factor for lattice sums       =   12.000


  Time limit = Infinity

  Maximum range for interatomic potentials =    100000.000000 Angstroms

  General interatomic potentials :

--------------------------------------------------------------------------------
Atom  Types   Potential         A         B         C         D     Cutoffs(Ang)
  1     2                                                            Min    Max 
--------------------------------------------------------------------------------
Si1  c Si1  c Still-Weber 2  15.3      2.10      11.6      0.00     0.000  3.771
--------------------------------------------------------------------------------

  General Three-body potentials :

  Stillinger-Weber form:

--------------------------------------------------------------------------------
       Atom Types        Force Cst    Theta      Rhos           Cutoffs  
   1       2       3        (eV)                (Angs)     1-2    1-3    2-3  
--------------------------------------------------------------------------------
Si1   c Si1   c Si1   c   45.51      109.471 2.514 2.514  0.000  0.000  0.000
                                                          3.771  3.771  6.158
--------------------------------------------------------------------------------

********************************************************************************
*  Output for configuration   1                                                *
********************************************************************************


  Components of energy : 

--------------------------------------------------------------------------------
  Interatomic potentials     =          -8.66914786 eV
  Three-body potentials      =           0.00000000 eV
  Monopole - monopole (real) =           0.00000000 eV
  Monopole - monopole (recip)=           0.00000000 eV
  Monopole - monopole (total)=           0.00000000 eV
--------------------------------------------------------------------------------
  Total lattice energy       =          -8.66914786 eV
--------------------------------------------------------------------------------
  Total lattice energy       =            -836.4402 kJ/(mole unit cells)
--------------------------------------------------------------------------------


  Elastic Constant Matrix: (Units=GPa)

-------------------------------------------------------------------------------
  Indices      1         2         3         4         5         6    
-------------------------------------------------------------------------------
       1    170.3051   70.0806   63.7673    8.9283    0.0000    0.0000
       2     70.0806  170.3051   63.7673   -8.9283    0.0000   -0.0000
       3     63.7673   63.7673  176.6183   -0.0000   -0.0000    0.0000
       4      8.9283   -8.9283   -0.0000   43.7990   -0.0000    0.0000
       5      0.0000    0.0000   -0.0000   -0.0000   43.7990    8.9283
       6      0.0000   -0.0000    0.0000    0.0000    8.9283   50.1122
-------------------------------------------------------------------------------


  Elastic Compliance Matrix: (Units=1/GPa)

-------------------------------------------------------------------------------
  Indices      1         2         3         4         5         6    
-------------------------------------------------------------------------------
       1    0.007750 -0.002604 -0.001858 -0.002111 -0.000000 -0.000000
       2   -0.002604  0.007750 -0.001858  0.002111 -0.000000  0.000000
       3   -0.001858 -0.001858  0.007003  0.000000  0.000000 -0.000000
       4   -0.002111  0.002111  0.000000  0.023692  0.000000 -0.000000
       5   -0.000000 -0.000000  0.000000  0.000000  0.023692 -0.004221
       6   -0.000000  0.000000 -0.000000 -0.000000 -0.004221  0.020707
-------------------------------------------------------------------------------

  Mechanical properties :

-------------------------------------------------------------------------------
  Convention :                    Reuss         Voigt         Hill
-------------------------------------------------------------------------------
  Bulk  Modulus (GPa)     =     101.38433     101.38433     101.38433
  Shear Modulus (GPa)     =      46.93907      48.84960      47.89433
-------------------------------------------------------------------------------
  Velocity S-wave (km/s)  =       3.52642       3.59748       3.56213
  Velocity P-wave (km/s)  =       6.59097       6.64197       6.61652
-------------------------------------------------------------------------------
  Compressibility (1/GPa) =    0.00986346
-------------------------------------------------------------------------------
  Stress axis :                     x             y             z
-------------------------------------------------------------------------------
  Youngs Moduli (GPa)     =     129.03845     129.03845     142.78710
-------------------------------------------------------------------------------
  Poissons Ratio (x)      =                     0.33602       0.26527
  Poissons Ratio (y)      =       0.33602                     0.26527
  Poissons Ratio (z)      =       0.23973       0.23973
-------------------------------------------------------------------------------


  Piezoelectric Strain Matrix: (Units=C/m**2)

-------------------------------------------------------------------------------
  Indices      1         2         3         4         5         6    
-------------------------------------------------------------------------------
       x    -0.00000  -0.00000  -0.00000  -0.00000  -0.00000  -0.00000
       y    -0.00000  -0.00000  -0.00000  -0.00000  -0.00000  -0.00000
       z    -0.00000  -0.00000  -0.00000  -0.00000  -0.00000  -0.00000
-------------------------------------------------------------------------------


  Piezoelectric Stress Matrix: (Units=10**-11 C/N)

-------------------------------------------------------------------------------
  Indices      1         2         3         4         5         6    
-------------------------------------------------------------------------------
       x     0.00000   0.00000   0.00000   0.00000   0.00000   0.00000
       y     0.00000   0.00000   0.00000   0.00000   0.00000   0.00000
       z     0.00000   0.00000   0.00000   0.00000   0.00000   0.00000
-------------------------------------------------------------------------------


  Static dielectric constant tensor : 

-------------------------------------------------------------------------------
              x         y         z
-------------------------------------------------------------------------------
       x     1.00000   0.00000   0.00000
       y     0.00000   1.00000   0.00000
       z     0.00000   0.00000   1.00000
--------------------------------------------------------------------------------

  Static refractive indices : 

-------------------------------------------------------------------------------
    1 =    1.00000      2 =    1.00000      3 =    1.00000
-------------------------------------------------------------------------------


  Phonon Calculation : 

  K direction for n-a correction at gamma =  1.00000  1.00000  1.00000

  Number of k points for this configuration =       30

--------------------------------------------------------------------------------
  K point      1 =   0.000000  0.000000  0.000000  Weight =    0.033
--------------------------------------------------------------------------------

  Frequencies (cm-1) [NB: Negative implies an imaginary mode]:

    0.00    0.00    0.00  467.18  467.18  467.18


--------------------------------------------------------------------------------
  K point      2 =   0.017241  0.000000  0.000000  Weight =    0.033
--------------------------------------------------------------------------------

  Frequencies (cm-1) [NB: Negative implies an imaginary mode]:

    6.25    6.25   12.55  467.01  467.11  467.11


--------------------------------------------------------------------------------
  K point      3 =   0.034483  0.000000  0.000000  Weight =    0.033
--------------------------------------------------------------------------------

  Frequencies (cm-1) [NB: Negative implies an imaginary mode]:

   12.48   12.48   25.08  466.51  466.89  466.89


--------------------------------------------------------------------------------
  K point      4 =   0.051724  0.000000  0.000000  Weight =    0.033
--------------------------------------------------------------------------------

  Frequencies (cm-1) [NB: Negative implies an imaginary mode]:

   18.69   18.69   37.60  465.67  466.52  466.52


--------------------------------------------------------------------------------
  K point      5 =   0.068966  0.000000  0.000000  Weight =    0.033
--------------------------------------------------------------------------------

  Frequencies (cm-1) [NB: Negative implies an imaginary mode]:

   24.86   24.86   50.08  464.49  466.02  466.02


--------------------------------------------------------------------------------
  K point      6 =   0.086207  0.000000  0.000000  Weight =    0.033
--------------------------------------------------------------------------------

  Frequencies (cm-1) [NB: Negative implies an imaginary mode]:

   30.99   30.99   62.53  462.98  465.37  465.37


--------------------------------------------------------------------------------
  K point      7 =   0.103448  0.000000  0.000000  Weight =    0.033
--------------------------------------------------------------------------------

  Frequencies (cm-1) [NB: Negative implies an imaginary mode]:

   37.05   37.05   74.93  461.13  464.60  464.60


--------------------------------------------------------------------------------
  K point      8 =   0.120690  0.000000  0.000000  Weight =    0.033
--------------------------------------------------------------------------------

  Frequencies (cm-1) [NB: Negative implies an imaginary mode]:

   43.04   43.04   87.28  458.96  463.70  463.70


--------------------------------------------------------------------------------
  K point      9 =   0.137931  0.000000  0.000000  Weight =    0.033
--------------------------------------------------------------------------------

  Frequencies (cm-1) [NB: Negative implies an imaginary mode]:

   48.94   48.94   99.55  456.45  462.68  462.68


--------------------------------------------------------------------------------
  K point     10 =   0.155172  0.000000  0.000000  Weight =    0.033
--------------------------------------------------------------------------------

  Frequencies (cm-1) [NB: Negative implies an imaginary mode]:

   54.74   54.74  111.75  453.62  461.56  461.56


--------------------------------------------------------------------------------
  K point     11 =   0.172414  0.000000  0.000000  Weight =    0.033
--------------------------------------------------------------------------------

  Frequencies (cm-1) [NB: Negative implies an imaginary mode]:

   60.42   60.42  123.85  450.46  460.34  460.34


--------------------------------------------------------------------------------
  K point     12 =   0.189655  0.000000  0.000000  Weight =    0.033
--------------------------------------------------------------------------------

  Frequencies (cm-1) [NB: Negative implies an imaginary mode]:

   65.97   65.97  135.87  446.99  459.04  459.04


--------------------------------------------------------------------------------
  K point     13 =   0.206897  0.000000  0.000000  Weight =    0.033
--------------------------------------------------------------------------------

  Frequencies (cm-1) [NB: Negative implies an imaginary mode]:

   71.37   71.37  147.77  443.20  457.66  457.66


--------------------------------------------------------------------------------
  K point     14 =   0.224138  0.000000  0.000000  Weight =    0.033
--------------------------------------------------------------------------------

  Frequencies (cm-1) [NB: Negative implies an imaginary mode]:

   76.61   76.61  159.55  439.09  456.23  456.23


--------------------------------------------------------------------------------
  K point     15 =   0.241379  0.000000  0.000000  Weight =    0.033
--------------------------------------------------------------------------------

  Frequencies (cm-1) [NB: Negative implies an imaginary mode]:

   81.66   81.66  171.21  434.68  454.75  454.75


--------------------------------------------------------------------------------
  K point     16 =   0.258621  0.000000  0.000000  Weight =    0.033
--------------------------------------------------------------------------------

  Frequencies (cm-1) [NB: Negative implies an imaginary mode]:

   86.52   86.52  182.73  429.96  453.25  453.25


--------------------------------------------------------------------------------
  K point     17 =   0.275862  0.000000  0.000000  Weight =    0.033
--------------------------------------------------------------------------------

  Frequencies (cm-1) [NB: Negative implies an imaginary mode]:

   91.15   91.15  194.09  424.96  451.74  451.74


--------------------------------------------------------------------------------
  K point     18 =   0.293103  0.000000  0.000000  Weight =    0.033
--------------------------------------------------------------------------------

  Frequencies (cm-1) [NB: Negative implies an imaginary mode]:

   95.55   95.55  205.29  419.66  450.23  450.23


--------------------------------------------------------------------------------
  K point     19 =   0.310345  0.000000  0.000000  Weight =    0.033
--------------------------------------------------------------------------------

  Frequencies (cm-1) [NB: Negative implies an imaginary mode]:

   99.69   99.69  216.31  414.09  448.76  448.76


--------------------------------------------------------------------------------
  K point     20 =   0.327586  0.000000  0.000000  Weight =    0.033
--------------------------------------------------------------------------------

  Frequencies (cm-1) [NB: Negative implies an imaginary mode]:

  103.56  103.56  227.13  408.25  447.33  447.33


--------------------------------------------------------------------------------
  K point     21 =   0.344828  0.000000  0.000000  Weight =    0.033
--------------------------------------------------------------------------------

  Frequencies (cm-1) [NB: Negative implies an imaginary mode]:

  107.13  107.13  237.74  402.16  445.96  445.96


--------------------------------------------------------------------------------
  K point     22 =   0.362069  0.000000  0.000000  Weight =    0.033
--------------------------------------------------------------------------------

  Frequencies (cm-1) [NB: Negative implies an imaginary mode]:

  110.39  110.39  248.11  395.85  444.67  444.67


--------------------------------------------------------------------------------
  K point     23 =   0.379310  0.000000  0.000000  Weight =    0.033
--------------------------------------------------------------------------------

  Frequencies (cm-1) [NB: Negative implies an imaginary mode]:

  113.31  113.31  258.21  389.34  443.49  443.49


--------------------------------------------------------------------------------
  K point     24 =   0.396552  0.000000  0.000000  Weight =    0.033
--------------------------------------------------------------------------------

  Frequencies (cm-1) [NB: Negative implies an imaginary mode]:

  115.89  115.89  267.99  382.67  442.42  442.42


--------------------------------------------------------------------------------
  K point     25 =   0.413793  0.000000  0.000000  Weight =    0.033
--------------------------------------------------------------------------------

  Frequencies (cm-1) [NB: Negative implies an imaginary mode]:

  118.10  118.10  277.38  375.92  441.49  441.49


--------------------------------------------------------------------------------
  K point     26 =   0.431034  0.000000  0.000000  Weight =    0.033
--------------------------------------------------------------------------------

  Frequencies (cm-1) [NB: Negative implies an imaginary mode]:

  119.92  119.92  286.25  369.21  440.70  440.70


--------------------------------------------------------------------------------
  K point     27 =   0.448276  0.000000  0.000000  Weight =    0.033
--------------------------------------------------------------------------------

  Frequencies (cm-1) [NB: Negative implies an imaginary mode]:

  121.36  121.36  294.39  362.76  440.08  440.08


--------------------------------------------------------------------------------
  K point     28 =   0.465517  0.000000  0.000000  Weight =    0.033
--------------------------------------------------------------------------------

  Frequencies (cm-1) [NB: Negative implies an imaginary mode]:

  122.39  122.39  301.38  356.97  439.63  439.63


--------------------------------------------------------------------------------
  K point     29 =   0.482759  0.000000  0.000000  Weight =    0.033
--------------------------------------------------------------------------------

  Frequencies (cm-1) [NB: Negative implies an imaginary mode]:

  123.01  123.01  306.41  352.66  439.35  439.35


--------------------------------------------------------------------------------
  K point     30 =   0.500000  0.000000  0.000000  Weight =    0.033
--------------------------------------------------------------------------------

  Frequencies (cm-1) [NB: Negative implies an imaginary mode]:

  123.22  123.22  308.31  351.00  439.26  439.26


--------------------------------------------------------------------------------
  Phonon properties (per mole of unit cells): Temperature =      0.000 K
--------------------------------------------------------------------------------
  Zero point energy            =        0.102432 eV
--------------------------------------------------------------------------------

  Phonon dispersion curves : 

--------------------------------------------------------------------------------
  Section number =   1
--------------------------------------------------------------------------------
  Frequency (cm-1) Phonon dispersion                                            
--------------------------------------------------------------------------------
   458.09   | * * * * * * * * * * * *                                    
   439.01   |                 * * * * * * * * * * * * * * * * * * * * * *
   419.92   |                             * * *                          
   400.83   |                                   * * * *                  
   381.74   |                                           * * *            
   362.66   |                                                 * * *      
   343.57   |                                                       * * *
   324.48   |                                                            
   305.40   |                                                         * *
   286.31   |                                                     * *    
   267.22   |                                               * * *        
   248.13   |                                             *              
   229.05   |                                         * *                
   209.96   |                                     * *                    
   190.87   |                                 * *                        
   171.79   |                               *                            
   152.70   |                           * *                              
   133.61   |                       * *                                  
   114.52   |                     *                         * * * * * * *
    95.44   |                 * *               * * * * * *              
    76.35   |               *           * * * *                          
    57.26   |           * *       * * *                                  
    38.17   |         *     * * *                                        
    19.09   |     * * * * *                                              
     0.00   | * * * *                                                    
--------------------------------------------------------------------------------


  Phonon dispersion written as X_si.disp                     

  Time to end of properties =       0.0240 seconds


  Peak dynamic memory used =       0.47 MB 


  Timing analysis for GULP :

--------------------------------------------------------------------------------
  Task / Subroutine                                          Time (Seconds)
--------------------------------------------------------------------------------
  Calculation of real space energy and derivatives                0.0080
  Calculation of phonons                                          0.0120
  Calculation of scattering                                       0.0000
--------------------------------------------------------------------------------
  Total CPU time                                                  0.0240
--------------------------------------------------------------------------------


  Job Finished at 02:26.38 20th July       2013                               

