ITEM: TIMESTEP
387
ITEM: NUMBER OF ATOMS
256
ITEM: BOX BOUNDS
0 6.3454
0 6.3454
0 6.3454
ITEM: ATOMS x y z 
0.731041 0.764471 4.77326 
2.55454 2.04483 1.26114 
1.5274 0.0740422 1.47492 
5.08738 2.13132 1.95761 
1.45852 4.05411 5.40795 
2.90741 5.45046 4.77593 
1.95878 4.31467 2.31326 
4.02875 3.43648 4.8577 
5.63458 4.97063 3.13144 
6.2987 1.25385 1.51074 
0.0267123 0.150372 4.04745 
1.68913 0.386366 5.97089 
5.50813 6.17131 5.7601 
0.338435 3.72209 3.33854 
2.65543 3.89756 1.55227 
0.192362 1.95284 2.93553 
3.76211 3.72625 3.78972 
5.88863 2.04301 3.85091 
3.65293 5.63118 2.69071 
1.70085 2.28314 5.53396 
1.57799 3.631 1.56102 
3.12983 4.59297 4.03013 
5.51099 3.12727 2.07059 
1.2535 2.8899 0.794678 
4.33399 4.3861 4.40573 
4.35547 3.66151 0.972711 
5.08276 2.87471 1.10369 
3.40631 3.39838 0.445576 
0.641974 0.0123375 2.12209 
3.49022 2.72556 1.29294 
3.58419 9.95382e-05 4.75087 
2.07948 4.80821 3.90276 
0.148525 4.42083 4.88708 
6.10198 3.90865 0.448594 
1.87824 5.66397 4.47846 
1.41572 3.24127 3.54251 
2.83334 2.63218 2.19277 
2.98996 1.97535 3.89271 
5.21554 6.25391 0.449814 
1.16476 1.7566 4.76424 
4.34874 2.40523 4.74309 
4.89363 5.16754 3.92963 
2.5388 6.00969 1.41173 
4.60637 0.869633 0.718891 
3.0354 0.646785 1.20472 
1.76813 2.62025 1.8282 
0.84949 1.82266 1.99568 
1.82199 5.25088 5.43903 
2.35622 3.0521 0.987625 
3.40907 0.0626938 2.00798 
4.11737 1.64036 3.77716 
4.14557 1.68877 0.0786129 
1.18065 5.69109 6.2173 
2.15221 0.292169 0.61099 
2.06514 2.20246 0.238833 
6.25915 0.104264 0.160148 
5.71228 1.39566 2.4693 
5.70799 3.87412 2.82516 
0.505875 1.62164 3.92961 
1.98455 3.27395 2.62732 
0.225832 4.57768 2.70109 
4.15699 6.24032 0.0225377 
2.66449 0.0603727 4.22225 
4.5172 5.50986 0.789239 
1.44924 2.15151 3.81611 
3.28779 6.0409 5.74297 
3.61674 0.78605 0.303736 
2.63148 5.78786 2.46098 
3.79836 2.44137 5.67893 
3.73941 4.76852 2.02694 
5.5108 6.03133 4.67273 
5.09138 3.6488 0.173818 
0.408818 1.10491 0.351836 
5.58822 4.65939 2.07479 
3.1214 6.16712 0.478724 
5.31357 4.52402 5.92533 
4.62069 1.25778 2.48531 
5.18237 1.15156 1.57517 
0.341732 0.976863 2.47566 
3.87088 2.67302 3.78846 
1.79333 0.803155 4.94112 
0.943799 4.55806 1.81213 
4.82414 3.23536 3.02067 
2.67776 5.17299 0.662425 
0.705615 4.01404 6.23474 
1.1869 1.34603 5.73147 
4.27529 0.819083 4.5643 
1.61999 3.82412 0.45125 
6.06237 3.8387 5.72236 
2.05433 1.05939 1.35291 
3.39677 0.852517 3.91917 
2.93851 3.02498 3.42035 
5.41025 2.59163 4.70976 
5.37937 4.32651 4.82844 
6.2644 1.95 6.29168 
3.65222 5.27394 0.191518 
2.1572 3.21732 5.20403 
0.252157 5.81844 5.71686 
1.92907 5.17163 2.92816 
5.80866 4.14887 3.86578 
0.402063 2.12138 1.0013 
2.26735 5.84508 6.24271 
4.8173 4.22398 3.42093 
1.1802 5.36077 3.68472 
2.69871 1.33722 3.03206 
1.30471 4.31985 3.28911 
5.53424 5.97297 3.58224 
0.915511 5.39078 2.60361 
2.87513 3.63186 4.44398 
3.94763 4.94781 3.44621 
3.89756 5.35797 4.42198 
4.93692 3.47559 4.22449 
2.43554 4.09204 5.81726 
5.22253 0.705977 5.07959 
2.63271 4.1225 0.509366 
1.20118 6.13928 5.20985 
2.23645 2.77819 4.19299 
4.47518 1.52606 5.40934 
3.27387 1.49673 5.85772 
2.94306 3.71298 2.56015 
2.65479 1.32145 0.442613 
0.632603 0.477013 5.84202 
5.43396 5.51164 1.41369 
5.32797 5.84119 2.44696 
3.92772 4.09477 2.8127 
6.29597 5.50156 2.11559 
1.03008 0.184461 0.504657 
2.3326 1.83873 4.77259 
3.68975 3.71288 1.7975 
5.30629 0.588895 4.01377 
1.7897 3.80364 4.36116 
4.77384 3.9305 2.18112 
0.664042 2.40446 5.57594 
5.28216 0.488346 2.9169 
6.04427 1.18235 4.50113 
4.63007 4.6516 1.40313 
4.41993 2.9514 1.9151 
2.42509 3.16125 6.2908 
3.23801 2.65998 4.7029 
4.42983 4.50748 0.264121 
6.26082 5.5603 0.705081 
5.09418 3.44231 5.35803 
3.76797 3.0477 2.73714 
3.63238 0.920712 2.74157 
0.0269383 3.8081 1.92728 
1.88809 0.715307 3.10365 
4.57225 6.17432 4.23441 
5.85159 0.379287 1.98002 
4.95446 0.124802 1.47381 
1.83216 4.79836 0.0509903 
0.428744 4.63484 3.86274 
0.176057 0.200597 1.17695 
2.3605 4.53165 4.87342 
1.24168 2.83184 4.66935 
4.47641 2.23448 2.86449 
6.05229 3.44077 4.66424 
1.93376 6.09767 3.51234 
5.42746 3.902 1.28471 
4.5114 6.2062 5.32073 
2.35534 3.92048 3.43076 
3.19604 3.37944 5.54438 
0.875819 4.82772 0.603582 
0.150968 2.37587 4.66533 
5.6174 2.73762 0.214882 
3.53432 1.63201 1.0019 
5.1224 1.46848 3.38502 
3.16629 2.34092 0.27806 
2.88628 0.835447 5.00515 
1.01008 2.06571 0.145465 
6.13187 1.01311 3.41053 
4.56173 5.86648 3.18948 
4.57709 1.89594 1.05527 
2.9658 4.74065 2.85517 
4.79408 5.42504 6.09157 
5.42415 4.79498 0.613245 
0.730209 3.70349 4.30707 
3.97761 0.0661844 1.07271 
1.72806 5.3691 1.86767 
2.84136 5.06264 5.80469 
0.342338 2.99235 0.140006 
1.47214 1.90749 1.12047 
4.39072 5.64003 1.8591 
0.588286 3.42132 5.3198 
3.48713 4.26693 6.14552 
5.87923 0.917092 5.95741 
1.57005 1.16165 0.362345 
4.37119 0.613916 3.46315 
2.86509 0.245236 3.14119 
4.03147 0.944182 1.6593 
0.711705 2.90631 1.74395 
0.219411 1.47403 5.36443 
1.69538 5.61329 0.798587 
2.75469 0.526599 6.06524 
1.8571 4.59195 1.15554 
0.808367 4.90293 5.58396 
4.81825 0.686506 6.05451 
6.00322 2.77333 5.57482 
6.31016 4.83851 6.25312 
1.63157 6.19186 2.51974 
5.02405 1.59156 4.44457 
1.36132 0.835036 2.20161 
1.1693 1.50994 3.0079 
4.24959 2.69838 0.423833 
5.70852 0.871067 0.68584 
1.3405 1.0015 3.95282 
0.98161 3.67092 2.47787 
3.82848 0.6482 5.58127 
2.00321 1.67557 2.2469 
3.56573 1.63295 4.78349 
3.03444 1.41661 1.98697 
0.464748 5.53881 4.64302 
4.90889 2.46911 3.79303 
6.1583 3.04472 1.13849 
4.40248 4.3053 5.47108 
3.55935 4.45141 0.966655 
2.21128 2.3136 3.09005 
0.948458 0.979054 1.25438 
2.22661 1.39169 5.7816 
5.67688 1.96974 0.995616 
1.08948 6.31648 4.15863 
2.7104 4.94453 1.76893 
3.43569 2.05465 2.92001 
3.89157 5.23636 5.49031 
1.12484 2.57068 2.74722 
3.40617 4.37326 5.05618 
3.94879 1.98659 1.96074 
2.37461 1.07826 4.0279 
0.768171 5.58248 1.38386 
2.73695 2.38027 5.62351 
5.90353 5.14359 4.23049 
6.32552 4.66157 1.26774 
4.66366 4.93497 2.61275 
2.34032 6.25112 5.24924 
4.18091 3.41462 5.99099 
6.22348 0.297623 5.12466 
0.882034 0.340358 3.17635 
5.54549 2.39153 2.88375 
5.20559 1.65782 0.0843063 
4.38943 0.209981 2.40027 
5.80573 3.10424 3.63977 
4.86039 2.49972 5.8103 
6.1706 2.24768 1.93096 
2.8312 5.52341 3.57337 
4.83766 5.23108 4.99808 
0.660125 3.79443 1.01367 
1.23696 4.73576 4.59213 
6.24275 0.050524 2.89257 
3.49753 5.5012 1.28142 
5.5463 1.76612 5.38274 
3.6635 6.1535 3.68493 
0.0870067 2.98766 2.65234 
1.35234 3.12714 6.04685 
5.86531 5.20071 5.30677 
0.486815 2.70314 3.6934 
0.177821 5.55118 3.41566 
2.43497 0.511968 2.17722 
ITEM: TIMESTEP
388
ITEM: NUMBER OF ATOMS
256
ITEM: BOX BOUNDS
0 6.3454
0 6.3454
0 6.3454
ITEM: ATOMS x y z 
0.731041 0.764471 4.77326 
2.55454 2.04483 1.26114 
1.5274 0.0740422 1.47492 
5.08738 2.13132 1.95761 
1.45852 4.05411 5.40795 
2.90741 5.45046 4.77593 
1.95878 4.31467 2.31326 
4.02875 3.43648 4.8577 
5.63458 4.97063 3.13144 
6.2987 1.25385 1.51074 
0.0267123 0.150372 4.04745 
1.68913 0.386366 5.97089 
5.50813 6.17131 5.7601 
0.338435 3.72209 3.33854 
2.65543 3.89756 1.55227 
0.192362 1.95284 2.93553 
3.76211 3.72625 3.78972 
5.88863 2.04301 3.85091 
3.65293 5.63118 2.69071 
1.70085 2.28314 5.53396 
1.57799 3.631 1.56102 
3.12983 4.59297 4.03013 
5.51099 3.12727 2.07059 
1.2535 2.8899 0.794678 
4.33399 4.3861 4.40573 
4.35547 3.66151 0.972711 
5.08276 2.87471 1.10369 
3.40631 3.39838 0.445576 
0.641974 0.0123375 2.12209 
3.49022 2.72556 1.29294 
3.58419 9.95228e-05 4.75087 
2.07948 4.80821 3.90276 
0.148525 4.42083 4.88708 
6.10198 3.90865 0.448594 
1.87824 5.66397 4.47846 
1.41572 3.24127 3.54251 
2.83334 2.63218 2.19277 
2.98996 1.97535 3.89271 
5.21554 6.25391 0.449814 
1.16476 1.7566 4.76424 
4.34874 2.40523 4.74309 
4.89363 5.16754 3.92963 
2.5388 6.00969 1.41173 
4.60637 0.869633 0.718891 
3.0354 0.646785 1.20472 
1.76813 2.62025 1.8282 
0.84949 1.82266 1.99568 
1.82199 5.25088 5.43903 
2.35622 3.0521 0.987625 
3.40907 0.0626938 2.00798 
4.11737 1.64036 3.77716 
4.14557 1.68877 0.0786129 
1.18065 5.69109 6.2173 
2.15221 0.292169 0.61099 
2.06514 2.20246 0.238833 
6.25915 0.104264 0.160148 
5.71228 1.39566 2.4693 
5.70799 3.87412 2.82516 
0.505875 1.62164 3.92961 
1.98455 3.27395 2.62732 
0.225832 4.57768 2.70109 
4.15699 6.24032 0.0225377 
2.66449 0.0603727 4.22225 
4.5172 5.50986 0.789239 
1.44924 2.15151 3.81611 
3.28779 6.0409 5.74297 
3.61674 0.78605 0.303736 
2.63148 5.78786 2.46098 
3.79836 2.44137 5.67893 
3.73941 4.76852 2.02694 
5.5108 6.03133 4.67273 
5.09138 3.6488 0.173818 
0.408818 1.10491 0.351836 
5.58822 4.65939 2.07479 
3.1214 6.16712 0.478724 
5.31357 4.52402 5.92533 
4.62069 1.25778 2.48531 
5.18237 1.15156 1.57517 
0.341732 0.976863 2.47566 
3.87088 2.67302 3.78846 
1.79333 0.803155 4.94112 
0.943799 4.55806 1.81213 
4.82414 3.23536 3.02067 
2.67776 5.17299 0.662425 
0.705615 4.01404 6.23474 
1.1869 1.34603 5.73147 
4.27529 0.819083 4.5643 
1.61999 3.82412 0.45125 
6.06237 3.8387 5.72236 
2.05433 1.05939 1.35291 
3.39677 0.852517 3.91917 
2.93851 3.02498 3.42035 
5.41025 2.59163 4.70976 
5.37937 4.32651 4.82844 
6.2644 1.95 6.29168 
3.65222 5.27394 0.191518 
2.1572 3.21732 5.20403 
0.252157 5.81844 5.71686 
1.92907 5.17163 2.92816 
5.80866 4.14887 3.86578 
0.402063 2.12138 1.0013 
2.26735 5.84508 6.24271 
4.8173 4.22398 3.42093 
1.1802 5.36077 3.68472 
2.69871 1.33722 3.03206 
1.30471 4.31985 3.28911 
5.53424 5.97297 3.58224 
0.915511 5.39078 2.60361 
2.87513 3.63186 4.44398 
3.94763 4.94781 3.44621 
3.89756 5.35797 4.42198 
4.93692 3.47559 4.22449 
2.43554 4.09204 5.81726 
5.22253 0.705977 5.07959 
2.63271 4.1225 0.509366 
1.20118 6.13928 5.20985 
2.23645 2.77819 4.19299 
4.47518 1.52606 5.40934 
3.27387 1.49673 5.85772 
2.94306 3.71298 2.56015 
2.65479 1.32145 0.442613 
0.632603 0.477013 5.84202 
5.43396 5.51164 1.41369 
5.32797 5.84119 2.44696 
3.92772 4.09477 2.8127 
6.29597 5.50156 2.11559 
1.03008 0.184461 0.504657 
2.3326 1.83873 4.77259 
3.68975 3.71288 1.7975 
5.30629 0.588895 4.01377 
1.7897 3.80364 4.36116 
4.77384 3.9305 2.18112 
0.664042 2.40446 5.57594 
5.28216 0.488346 2.9169 
6.04427 1.18235 4.50113 
4.63007 4.6516 1.40313 
4.41993 2.9514 1.9151 
2.42509 3.16125 6.2908 
3.23801 2.65998 4.7029 
4.42983 4.50748 0.264121 
6.26082 5.5603 0.705081 
5.09418 3.44231 5.35803 
3.76797 3.0477 2.73714 
3.63238 0.920712 2.74157 
0.0269383 3.8081 1.92728 
1.88809 0.715307 3.10365 
4.57225 6.17432 4.23441 
5.85159 0.379287 1.98002 
4.95446 0.124802 1.47381 
1.83216 4.79836 0.0509903 
0.428744 4.63484 3.86274 
0.176057 0.200597 1.17695 
2.3605 4.53165 4.87342 
1.24168 2.83184 4.66935 
4.47641 2.23448 2.86449 
6.05229 3.44077 4.66424 
1.93376 6.09767 3.51234 
5.42746 3.902 1.28471 
4.5114 6.2062 5.32073 
2.35534 3.92048 3.43076 
3.19604 3.37944 5.54438 
0.875819 4.82772 0.603582 
0.150968 2.37587 4.66533 
5.6174 2.73762 0.214882 
3.53432 1.63201 1.0019 
5.1224 1.46848 3.38502 
3.16629 2.34092 0.27806 
2.88628 0.835447 5.00515 
1.01008 2.06571 0.145465 
6.13187 1.01311 3.41053 
4.56173 5.86648 3.18948 
4.57709 1.89594 1.05527 
2.9658 4.74065 2.85517 
4.79408 5.42504 6.09157 
5.42415 4.79498 0.613245 
0.730209 3.70349 4.30707 
3.97761 0.0661843 1.07271 
1.72806 5.3691 1.86767 
2.84136 5.06264 5.80469 
0.342338 2.99235 0.140006 
1.47214 1.90749 1.12047 
4.39072 5.64003 1.8591 
0.588286 3.42132 5.3198 
3.48713 4.26693 6.14552 
5.87923 0.917092 5.95741 
1.57005 1.16165 0.362345 
4.37119 0.613915 3.46315 
2.86509 0.245236 3.14119 
4.03147 0.944182 1.6593 
0.711705 2.90631 1.74395 
0.219411 1.47403 5.36443 
1.69538 5.61329 0.798587 
2.75469 0.526599 6.06524 
1.8571 4.59195 1.15554 
0.808367 4.90293 5.58396 
4.81825 0.686506 6.05451 
6.00322 2.77333 5.57482 
6.31016 4.83851 6.25312 
1.63157 6.19186 2.51974 
5.02405 1.59156 4.44457 
1.36132 0.835036 2.20161 
1.1693 1.50994 3.0079 
4.24959 2.69838 0.423833 
5.70852 0.871067 0.68584 
1.3405 1.0015 3.95282 
0.98161 3.67092 2.47787 
3.82848 0.6482 5.58127 
2.00321 1.67557 2.2469 
3.56573 1.63295 4.78349 
3.03444 1.41661 1.98697 
0.464748 5.53881 4.64302 
4.90889 2.46911 3.79303 
6.1583 3.04472 1.13849 
4.40248 4.3053 5.47108 
3.55935 4.45141 0.966655 
2.21128 2.3136 3.09005 
0.948458 0.979054 1.25438 
2.22661 1.39169 5.7816 
5.67688 1.96974 0.995616 
1.08948 6.31648 4.15863 
2.7104 4.94453 1.76893 
3.43569 2.05465 2.92001 
3.89157 5.23636 5.49031 
1.12484 2.57068 2.74722 
3.40617 4.37326 5.05618 
3.94879 1.98659 1.96074 
2.37461 1.07826 4.0279 
0.768171 5.58248 1.38386 
2.73695 2.38027 5.62351 
5.90353 5.14359 4.23049 
6.32552 4.66157 1.26774 
4.66366 4.93497 2.61275 
2.34032 6.25112 5.24924 
4.18091 3.41462 5.99099 
6.22348 0.297623 5.12466 
0.882034 0.340358 3.17635 
5.54549 2.39153 2.88375 
5.20559 1.65782 0.0843063 
4.38943 0.209981 2.40027 
5.80573 3.10424 3.63977 
4.86039 2.49972 5.8103 
6.1706 2.24768 1.93096 
2.8312 5.52341 3.57337 
4.83766 5.23108 4.99808 
0.660125 3.79443 1.01367 
1.23696 4.73576 4.59213 
6.24275 0.050524 2.89257 
3.49753 5.5012 1.28142 
5.5463 1.76612 5.38274 
3.6635 6.1535 3.68493 
0.0870067 2.98766 2.65234 
1.35234 3.12714 6.04685 
5.86531 5.20071 5.30677 
0.486815 2.70314 3.6934 
0.177821 5.55118 3.41566 
2.43497 0.511968 2.17722 
