ITEM: TIMESTEP
387
ITEM: NUMBER OF ATOMS
256
ITEM: BOX BOUNDS
0 6.3454
0 6.3454
0 6.3454
ITEM: ATOMS fx fy fz 
0.000832774 0.00160159 -0.00180842 
2.49453e-05 0.00148292 -0.000884554 
-0.00100002 -0.000100613 -0.00171958 
-0.0011505 0.000132105 0.00082732 
-0.000468145 0.00152703 0.000856165 
0.000197031 0.000437811 -0.000785829 
-0.00079551 -0.00125796 -0.000162409 
0.000268797 0.000780839 0.000280041 
0.00133029 0.000180951 0.00025854 
-0.00134284 0.00057907 0.000296104 
-0.000153609 0.00104046 0.000766146 
0.0022234 -0.000495673 -0.000350946 
8.89275e-05 0.00173615 -0.00178794 
-0.000124929 0.000199766 0.00114988 
-0.00150319 -0.00044725 -0.000961753 
0.00120391 -0.000441483 8.42628e-05 
0.00130415 0.000398937 -0.00055497 
-0.00149371 -0.000446989 -0.00161865 
0.00203171 0.000661726 0.00054298 
0.00337169 -0.00366262 -0.0013011 
-0.00138822 0.000184977 0.000387385 
-0.000148975 0.0013036 -0.000784242 
-0.000518263 -0.000486267 -0.000489867 
0.000640297 0.00102749 -0.00146804 
0.000922363 -3.13579e-05 0.000940343 
-0.000648415 -0.000847402 0.00242432 
-0.00205062 0.000368363 0.0049059 
-0.000486011 0.000229562 -0.000669255 
-0.00206854 -0.000944745 0.000322048 
0.00183678 -0.0003265 -0.000120523 
0.00118804 -0.00122911 -0.000669622 
-0.00316514 0.00658696 0.00346478 
0.000379798 -0.00137502 -0.00113658 
-0.00194627 0.00263257 -0.000334042 
-0.00014041 -0.00231148 -7.15886e-05 
0.000974566 -0.000171574 0.00172648 
0.000485577 -0.000302515 -0.00124228 
0.000937561 -5.8796e-05 -0.000494892 
0.00158647 -0.000690501 0.00101628 
-0.000684179 -0.000716386 -0.00152823 
-1.42481e-05 0.000117283 0.000714593 
0.000672558 0.000158154 0.000448554 
-0.000586052 0.00033043 0.000769597 
-0.000647503 0.0012936 -0.00176667 
-0.000278311 -0.000362554 -0.000176128 
6.3241e-05 0.00286891 0.000270477 
0.000175651 0.000277152 0.000968452 
-0.000136374 -0.00101607 0.00110926 
-0.00189693 -0.000127568 -0.00112158 
0.000959143 1.39097e-05 -0.000549949 
0.000421098 3.35657e-05 -0.00093222 
-0.00114337 0.00121078 0.00085794 
0.000656633 0.000569225 -2.83789e-05 
-0.000690838 -0.000777434 0.000567351 
-0.00163183 -0.000268802 -0.000520458 
0.00301383 -0.0024551 0.000683291 
0.000301871 -0.00109131 0.000121525 
0.00130085 -0.000884086 0.00105632 
0.00174403 8.31718e-05 -0.00114923 
0.00133381 0.0014101 0.000139067 
0.000479655 0.000165169 0.00141904 
0.000408243 -0.00130895 0.000405612 
0.00305933 0.00147703 0.0011059 
8.48109e-05 0.00202727 -0.00245044 
0.000454812 -0.00160684 0.000297494 
-0.000175028 0.000958113 3.10568e-05 
0.000263994 0.00120342 0.000771244 
-0.00227953 -0.000512597 0.000552652 
0.0002471 0.000583858 -5.91534e-05 
0.000318085 -1.33393e-05 -0.00124346 
0.00260985 0.000789304 0.00240777 
-0.00198816 -0.000368931 0.000147196 
0.000177049 -2.49499e-05 0.000807175 
-0.00012514 -0.000734563 -0.000716695 
-0.000555849 -0.00102631 -0.000268457 
0.000172474 -0.0004295 0.00301355 
2.28967e-05 0.000131676 0.000645973 
0.000416285 -0.000150459 0.000227249 
-0.00106794 0.00119064 -5.74042e-05 
0.000704586 -0.0026763 0.000487749 
0.000236879 0.00109523 0.000174782 
4.31667e-05 -0.00059222 -0.00111788 
0.000250198 -0.00143834 -0.000673456 
-0.000271194 0.000174444 0.00218713 
-0.000832051 0.000398946 -0.00125739 
0.00388135 0.00306457 -9.06959e-05 
0.000427162 -0.000308856 0.00118294 
-0.000966605 -0.00194357 -0.00049216 
0.00305835 -0.000939731 -0.00286071 
-0.000774707 -0.000593483 0.000711489 
-0.00175575 0.000539462 0.0014692 
-0.00140924 0.00168953 0.00129289 
-6.76465e-06 0.000851131 -0.000852536 
-0.000512414 -0.000273008 0.000753661 
-0.00197187 0.00190108 -0.00124727 
-0.000298098 -0.000481914 0.00150125 
-0.00017355 0.00122651 -0.000382865 
-0.00216959 0.00219075 0.000240702 
0.000944297 0.00194686 -0.00163152 
-0.00011666 -0.000366605 5.29771e-05 
-0.00194565 -0.000234775 0.000715833 
-2.67301e-05 0.000281987 0.000553724 
0.000295753 5.05627e-05 -0.000647441 
0.00202367 -0.000345983 0.00100115 
0.00874529 0.00585992 -0.00215484 
-0.000849884 -0.000892983 0.00112084 
0.000293442 0.0003195 0.000104051 
0.000459939 0.00131236 -0.00122441 
0.0014068 -0.00214127 0.000508113 
-0.00149713 -0.000647999 0.000982421 
0.00011715 0.000611613 0.000410767 
0.00126106 0.00036712 0.00178122 
0.000713308 0.0032503 -0.00161786 
0.000475616 0.000534584 -0.000480997 
0.00118898 -0.000290511 0.000248084 
0.000273447 0.00140331 0.00102866 
0.000547666 0.000211051 0.000821076 
0.000168658 0.000179765 -0.000181048 
0.000592081 -0.000529908 -0.000463201 
-0.00520003 -0.000470627 0.00386204 
-9.23497e-07 -0.000570044 0.00043944 
-0.00073377 -0.00183821 -0.000364209 
-0.000284012 0.0011909 0.00127692 
-0.00040581 0.000654817 -0.0010695 
0.00147228 -1.98616e-05 0.00271891 
0.000439178 0.000507274 -0.00147569 
-0.000303472 0.00126187 0.000629414 
-0.00138495 -0.000380094 0.000809277 
0.0015452 4.5203e-05 -0.00117829 
-0.000524782 0.00043729 0.000847882 
-0.00120697 -0.000542902 -0.000411589 
0.000162941 -0.00025976 -0.000211999 
-0.00227164 3.72616e-06 -0.00232577 
0.000459014 -0.000449022 0.000727652 
5.39521e-05 -8.0146e-05 0.00023257 
0.000581925 -0.000971336 0.000989985 
0.0015581 -0.000437077 -0.00206777 
0.00154339 -0.00105333 -2.21908e-05 
0.000326762 -0.00014262 -0.000388701 
0.0012909 4.78606e-05 0.000633543 
0.000509398 0.00393386 -0.00113816 
-0.00043709 0.000163174 0.00171004 
0.000330455 0.00010636 0.000136834 
-0.00318129 0.00205653 0.000334558 
-0.00042202 0.000925251 -0.000443339 
-0.00747705 -0.00754917 0.00108665 
-0.00133567 -0.000412982 -0.00120069 
-0.00031692 0.000643611 0.00180123 
-0.000913587 -0.000653003 -0.000873311 
0.000145901 0.000365154 -0.00131832 
0.000534529 -0.000206908 -0.000731256 
0.000619651 0.000695651 0.00101483 
0.000828715 0.000472574 0.00271938 
0.0010931 -0.00164186 -0.00164579 
0.00152863 0.000307769 0.00153545 
0.00203012 -0.000504148 -0.00012405 
-0.00292082 0.00298088 -0.00728962 
-0.000516881 -0.00249467 -0.00110668 
-0.000678192 6.01719e-05 -0.000404822 
0.0030707 -0.00457731 -0.0037107 
0.000480739 0.00028796 -0.00163683 
-0.000883655 0.000273486 -0.000253578 
8.32979e-05 -0.000536767 0.000544454 
0.00218041 -0.00291229 -0.00396397 
0.00103034 -0.00138243 0.00126023 
0.000372181 7.81885e-06 0.000894015 
-0.000556366 -0.000531967 -0.000352148 
0.00239303 -0.00373428 -0.00185484 
8.21854e-05 -2.52672e-05 0.000702792 
-0.00107219 -7.13628e-05 -0.00105586 
-0.00147418 1.26278e-06 -0.000440012 
-0.00190766 -0.000194717 -0.000703011 
0.000983875 -0.000260296 0.000389847 
0.0014637 -0.00047963 0.000817759 
-0.000513442 0.000173332 -0.000368662 
0.00224877 0.00131184 -0.00194198 
-0.000333478 -0.00116168 -0.00080585 
-0.000256853 -6.78946e-05 0.000787848 
0.00104337 -0.00259041 -0.00086336 
-2.65443e-05 0.000383966 5.60266e-05 
0.000925474 -0.0025418 -0.00149535 
0.000708257 0.00147829 0.000957678 
-0.00112858 0.00104619 0.00207342 
-0.000715093 0.000277007 -0.001435 
-2.02628e-05 0.00265403 -0.00159099 
-0.000235025 0.00134177 0.000700398 
2.20318e-06 -0.00127143 0.00046847 
0.00214089 0.000663511 3.85313e-05 
-0.00154653 0.000470222 0.000844764 
-0.000368957 0.000514276 -0.000501407 
-0.00120272 -0.00143409 -0.000962625 
-0.00104986 0.00135274 -0.000494601 
-0.000350104 -0.000661094 0.000946781 
0.000138397 0.000846968 0.000414447 
0.000425649 -0.00115029 -0.000661098 
-0.00107842 0.000480464 0.00236283 
0.000567202 -0.000279091 0.000867166 
-0.000237967 0.000524735 -0.000759161 
0.00326539 -0.0013069 0.00775707 
0.00013288 -4.18411e-05 -0.000741021 
0.000551676 0.0019546 0.00149837 
-0.00148641 -0.000280739 -0.00119273 
0.00196037 -8.19978e-05 -0.00120079 
-0.00131945 0.000595215 0.00125829 
-0.000483646 -0.00120345 -0.00106008 
-0.000510991 0.00030942 0.000224763 
0.000316199 -0.000389647 -0.000346288 
-0.0014178 -0.000796563 -0.000122272 
-0.000188066 -0.000965242 0.000619187 
0.00132156 -0.000311029 0.000643879 
0.000528613 0.000887337 -0.000788388 
0.000313342 0.000418289 -0.000901085 
-3.99417e-05 0.00065724 -0.000427632 
-0.00174986 0.000941975 -0.00189393 
-0.000768171 -0.000729927 0.00151265 
0.00080923 0.000757603 -0.000397367 
0.000253033 0.000167998 -0.00089832 
-0.00352681 0.00163311 -0.00129532 
0.00179893 -0.00245092 0.000810241 
-0.000784645 -0.000138692 -0.000952146 
0.0005869 -0.00102162 0.00100658 
-0.00378325 -0.00324311 0.000889686 
0.00122153 -0.000591429 0.00174924 
-0.00135905 -0.00120024 -0.000748697 
0.00193562 0.00167139 0.000724384 
-0.000722761 -0.00118352 -0.00158743 
0.000524741 -0.00038762 0.000784394 
-0.000495586 0.00117622 0.000999523 
-0.00137822 -0.000695549 -0.000276034 
-0.000233973 0.000510311 0.000129913 
0.000175724 -0.00120001 0.00126465 
3.78221e-05 -0.000794868 0.000230299 
-0.000553512 0.000998638 0.000894892 
-0.000136297 -0.000127721 -3.31948e-05 
-0.00380147 -0.00334086 0.000137529 
0.00233163 0.00139066 0.000633124 
-0.00128784 -0.000161555 0.000819951 
-0.000970699 0.000503723 -0.00161828 
2.75517e-05 -0.00242824 -0.000531316 
-0.000247764 -0.000918885 -0.000584992 
-0.000518932 1.60976e-06 -0.000854938 
2.8186e-05 -0.00131548 -0.0026405 
0.00191417 -0.000406181 -0.000772342 
0.000663306 -0.000274332 -0.000445768 
-0.0022546 -0.00117756 -0.002263 
-0.000599554 -0.000580164 -0.000701829 
-0.00285494 0.00196526 -0.0020058 
-0.000364332 0.00086909 0.000211484 
0.000892046 -0.000389219 -5.70726e-05 
0.000143032 -0.00137222 -0.000191231 
-0.000158085 0.00192011 0.000632466 
-1.85441e-05 0.00138947 0.003 
-0.000795789 -0.000570628 -0.00128546 
0.000456211 -0.000437176 0.000647727 
0.000463148 0.00176857 0.00260671 
0.00101438 0.000374202 0.000380772 
ITEM: TIMESTEP
388
ITEM: NUMBER OF ATOMS
256
ITEM: BOX BOUNDS
0 6.3454
0 6.3454
0 6.3454
ITEM: ATOMS fx fy fz 
0.000810948 0.00158594 -0.00179579 
2.76509e-05 0.00147563 -0.000881221 
-0.0010017 -9.82591e-05 -0.00169081 
-0.00114635 0.000123994 0.000824427 
-0.000464995 0.00152217 0.00085497 
0.000195233 0.00043856 -0.000783369 
-0.000795596 -0.00125015 -0.000159874 
0.00026953 0.000778334 0.000278244 
0.00132823 0.000181384 0.000257182 
-0.00133366 0.000569685 0.000297213 
-0.000154501 0.0010414 0.000764112 
0.00220951 -0.000487181 -0.00034517 
8.02179e-05 0.00173149 -0.00177055 
-0.000125372 0.000197196 0.00114623 
-0.00149661 -0.000450287 -0.000951805 
0.00119321 -0.000433132 8.08874e-05 
0.00130229 0.000391535 -0.000547398 
-0.00147757 -0.000448938 -0.0016089 
0.00201641 0.00065948 0.000536135 
0.00332914 -0.0036218 -0.00129567 
-0.00139068 0.000189857 0.00038189 
-0.000157812 0.00129307 -0.00077635 
-0.000511592 -0.000484785 -0.000482076 
0.000636871 0.00101304 -0.00145832 
0.00092133 -2.89144e-05 0.000932251 
-0.000645189 -0.000845642 0.00241419 
-0.00202212 0.000352869 0.00486119 
-0.000480309 0.000225164 -0.000667913 
-0.00204981 -0.000935447 0.000330055 
0.00183593 -0.000325544 -0.000124176 
0.00119056 -0.00122734 -0.000665562 
-0.0031345 0.00652592 0.00343208 
0.000379821 -0.00136966 -0.00113711 
-0.00194484 0.00262807 -0.000341549 
-0.000141539 -0.00227637 -6.9198e-05 
0.000973149 -0.000179387 0.00171523 
0.000485937 -0.000302142 -0.00124063 
0.000933273 -5.79079e-05 -0.000484241 
0.00159054 -0.000688422 0.00100996 
-0.000682385 -0.000714062 -0.00152179 
-1.27642e-05 0.000117052 0.00071264 
0.000667519 0.000157247 0.0004431 
-0.00058563 0.000329462 0.000769623 
-0.000648183 0.0012913 -0.00174919 
-0.000279032 -0.000363274 -0.000175354 
6.16104e-05 0.00284976 0.00026482 
0.000176086 0.000276886 0.000959388 
-0.000136414 -0.0010093 0.00110313 
-0.00189599 -0.000125111 -0.00112009 
0.000953669 1.097e-05 -0.000547413 
0.000419746 2.4929e-05 -0.000930791 
-0.00114233 0.0012093 0.000852316 
0.000648245 0.000569948 -3.24587e-05 
-0.000690023 -0.00077284 0.000565994 
-0.00162538 -0.000268256 -0.000520389 
0.00299687 -0.00242155 0.000676429 
0.000296505 -0.00108353 0.000121938 
0.00129723 -0.00088298 0.00105138 
0.00172688 8.28365e-05 -0.0011496 
0.00131314 0.001396 0.00013938 
0.000481564 0.000166908 0.00141599 
0.000405525 -0.00130414 0.000402088 
0.00303768 0.0014611 0.00109006 
8.67609e-05 0.00201484 -0.00243251 
0.000460865 -0.00160379 0.000291292 
-0.000172429 0.000947765 2.81655e-05 
0.000261881 0.00119503 0.000766599 
-0.00225272 -0.00050538 0.000548703 
0.000240899 0.00058217 -5.87612e-05 
0.000321106 -1.55398e-05 -0.00123398 
0.00258189 0.00077816 0.0023844 
-0.0019807 -0.000380581 0.000151492 
0.00017036 -1.99126e-05 0.000800003 
-0.000124877 -0.000734644 -0.000713875 
-0.000554402 -0.00102158 -0.000266675 
0.000174914 -0.000440629 0.00299718 
1.87531e-05 0.000126054 0.000646182 
0.000408368 -0.000150273 0.00022763 
-0.0010593 0.00118239 -5.88991e-05 
0.000694995 -0.00266183 0.000483327 
0.000238431 0.00109426 0.000173022 
4.26144e-05 -0.000591331 -0.00111679 
0.000251448 -0.00142858 -0.000673514 
-0.000274492 0.000172973 0.00218362 
-0.000831671 0.000400641 -0.00125104 
0.00383558 0.00304017 -9.38627e-05 
0.000424986 -0.000308742 0.00117895 
-0.000954837 -0.00192078 -0.000484925 
0.00303408 -0.000924483 -0.00284645 
-0.000768903 -0.000596015 0.000710399 
-0.00174112 0.000538999 0.00146691 
-0.00139131 0.00167395 0.00129455 
-4.33191e-06 0.000848467 -0.000847682 
-0.000508988 -0.000275214 0.000753792 
-0.00195484 0.00188137 -0.00124749 
-0.000299899 -0.000484888 0.00149847 
-0.000175188 0.00122437 -0.000378155 
-0.00216053 0.00216934 0.000235967 
0.000936796 0.0019258 -0.00161873 
-0.000116304 -0.000365045 5.67705e-05 
-0.00193221 -0.000234133 0.000709709 
-2.20388e-05 0.000273259 0.000549927 
0.000298848 4.80822e-05 -0.000642859 
0.0020092 -0.000341675 0.000991892 
0.00862301 0.00577535 -0.00212877 
-0.000840948 -0.000890312 0.00112106 
0.000288366 0.000319947 0.000105896 
0.000455695 0.00130887 -0.00121887 
0.00140598 -0.00212655 0.000506528 
-0.00148927 -0.000643066 0.000981363 
0.000118974 0.000604564 0.000413182 
0.00126022 0.000367287 0.00177802 
0.000710931 0.00321855 -0.00159845 
0.000468945 0.000535871 -0.000471692 
0.00117768 -0.000288335 0.000241177 
0.000274148 0.00139886 0.00102098 
0.000545578 0.000206784 0.000820264 
0.000169129 0.000179038 -0.00017788 
0.000580506 -0.000529728 -0.000464292 
-0.00515492 -0.000467149 0.00382712 
-3.24726e-06 -0.000566527 0.000436423 
-0.000718626 -0.00181223 -0.000370179 
-0.000282058 0.00118527 0.00126843 
-0.000405834 0.000653424 -0.00106393 
0.0014616 -2.039e-05 0.00269771 
0.000434397 0.000503604 -0.00147269 
-0.000302109 0.00125848 0.000622813 
-0.00137873 -0.0003832 0.000798414 
0.00152607 4.59471e-05 -0.00115694 
-0.000524229 0.000433796 0.000845897 
-0.00118865 -0.000531557 -0.000408643 
0.000162677 -0.000262485 -0.000209092 
-0.00224038 -9.53309e-07 -0.00230685 
0.000445602 -0.000444917 0.000727694 
5.49053e-05 -8.03331e-05 0.000225948 
0.000581441 -0.000960682 0.000982536 
0.00153747 -0.000434403 -0.00204805 
0.00154203 -0.0010405 -3.07402e-05 
0.000328258 -0.000147994 -0.000386081 
0.00128037 4.67832e-05 0.000633908 
0.000506774 0.00390476 -0.00112352 
-0.000434321 0.000164938 0.00170858 
0.000324903 9.99864e-05 0.000135157 
-0.00314763 0.00204182 0.000331689 
-0.000421749 0.000921502 -0.000440551 
-0.00737645 -0.00745479 0.00107825 
-0.00131741 -0.000412571 -0.0011918 
-0.000322739 0.000645116 0.00178417 
-0.000908903 -0.000644006 -0.000871863 
0.000144682 0.00035981 -0.00130683 
0.000529786 -0.000199663 -0.000730418 
0.000615628 0.000698061 0.00101521 
0.000826099 0.000469697 0.00269485 
0.00108678 -0.00163527 -0.00164035 
0.00150354 0.000299309 0.00152365 
0.0020278 -0.000505492 -0.000127593 
-0.00288588 0.00294088 -0.00720146 
-0.000517757 -0.00248756 -0.00110385 
-0.000674298 5.81462e-05 -0.000404199 
0.00303916 -0.00452264 -0.00366565 
0.000475989 0.000288524 -0.00163366 
-0.000882439 0.00027398 -0.000252868 
7.58001e-05 -0.000539646 0.00053163 
0.0021488 -0.00289069 -0.00392276 
0.00101945 -0.00137736 0.00125355 
0.00036831 3.36523e-06 0.000887194 
-0.000554439 -0.000533493 -0.000349405 
0.00238885 -0.00372691 -0.00184821 
6.97874e-05 -1.92824e-05 0.00069418 
-0.00106828 -6.9101e-05 -0.0010487 
-0.00145899 -2.9182e-06 -0.000435275 
-0.00189511 -0.000192533 -0.00069672 
0.000984477 -0.000259695 0.000387893 
0.00146548 -0.000475742 0.000812006 
-0.000509543 0.000179208 -0.00035842 
0.00224399 0.00130451 -0.00192581 
-0.00033216 -0.0011495 -0.000803727 
-0.000256254 -6.14314e-05 0.000785694 
0.00104362 -0.00256509 -0.000861812 
-2.60929e-05 0.000385381 5.58024e-05 
0.000920389 -0.00251573 -0.00148044 
0.000704497 0.00146449 0.000948379 
-0.00110734 0.0010378 0.00205475 
-0.000706714 0.000273942 -0.00142794 
-1.88145e-05 0.00263267 -0.00157302 
-0.000231109 0.00132947 0.000692816 
-3.80876e-06 -0.00126701 0.000464639 
0.00212935 0.000666668 3.69627e-05 
-0.00154022 0.000459844 0.000843454 
-0.000369339 0.000513728 -0.000501547 
-0.00118143 -0.00143062 -0.00095486 
-0.00104759 0.00134608 -0.000492514 
-0.000350605 -0.000647834 0.000944256 
0.000136824 0.000842218 0.00040865 
0.000418795 -0.0011393 -0.000658581 
-0.00107179 0.00047778 0.00234512 
0.000563284 -0.000277054 0.000852475 
-0.000236741 0.000528594 -0.000758072 
0.00323037 -0.00130195 0.0076745 
0.000132028 -3.92558e-05 -0.000736504 
0.000541668 0.00193029 0.00148046 
-0.00147999 -0.000281364 -0.00118375 
0.00195883 -7.71076e-05 -0.00119829 
-0.00131295 0.000588416 0.00124608 
-0.000477597 -0.0011982 -0.00105476 
-0.000510238 0.000308145 0.000225914 
0.000316203 -0.000389257 -0.000343747 
-0.00140954 -0.000785234 -0.000121405 
-0.000187842 -0.000962692 0.0006173 
0.00131178 -0.00030679 0.000632175 
0.000527562 0.000886203 -0.000786311 
0.000313263 0.000419776 -0.000890548 
-4.45902e-05 0.000655913 -0.000430803 
-0.00173218 0.000935632 -0.00187958 
-0.000765765 -0.000727538 0.00150936 
0.000806241 0.000757794 -0.000397757 
0.000250221 0.000168072 -0.000886453 
-0.00348125 0.00161186 -0.0012823 
0.00177963 -0.00243984 0.000799034 
-0.000779028 -0.000142812 -0.000946966 
0.00058404 -0.00101946 0.00100669 
-0.00372828 -0.00319466 0.000873531 
0.00121828 -0.000580535 0.00174957 
-0.00135329 -0.00119129 -0.000743724 
0.00192521 0.00166805 0.000713654 
-0.000716748 -0.00117476 -0.00157226 
0.000515905 -0.000383313 0.000769506 
-0.000493439 0.00117134 0.000994357 
-0.00136016 -0.000692527 -0.000275828 
-0.000230305 0.000506924 0.000128983 
0.000173657 -0.0011862 0.00125401 
3.7668e-05 -0.000791282 0.000229778 
-0.000552832 0.000990827 0.000887005 
-0.000138615 -0.000123039 -3.63764e-05 
-0.00375719 -0.0033082 0.000133585 
0.00229856 0.00138239 0.000625584 
-0.00127679 -0.000163619 0.000811068 
-0.000969912 0.000504301 -0.00161235 
2.68793e-05 -0.00240819 -0.000525325 
-0.000245867 -0.000914767 -0.000581624 
-0.000517549 2.98438e-07 -0.000856118 
2.68472e-05 -0.0013048 -0.00262219 
0.00189899 -0.000396873 -0.000772288 
0.000659541 -0.000269921 -0.000443704 
-0.0022498 -0.00117668 -0.00226037 
-0.000602406 -0.000581226 -0.000696712 
-0.00283079 0.00194992 -0.0019859 
-0.000362824 0.00086503 0.000214677 
0.000884866 -0.000380646 -6.31042e-05 
0.000141629 -0.00136641 -0.000189854 
-0.000162454 0.00190661 0.000625337 
-1.61166e-05 0.00136488 0.00297649 
-0.000790322 -0.000572013 -0.00127779 
0.000456068 -0.00043565 0.000646966 
0.000466975 0.00177605 0.00260031 
0.00101099 0.000373731 0.000385482 
