ITEM: TIMESTEP
0
ITEM: NUMBER OF ATOMS
256
ITEM: BOX BOUNDS
0 6.3454
0 6.3454
0 6.3454
ITEM: ATOMS x y z 
0.76536 0.75582 4.7372 
2.6609 2.0456 1.2484 
1.5793 0.082948 1.4063 
5.1511 2.0438 2.0621 
1.4359 3.996 5.3878 
2.9357 5.3684 4.7732 
1.9064 4.4132 2.4465 
3.9849 3.4352 4.858 
5.7377 4.9119 3.1334 
0.21999 1.1536 1.6218 
0.24269 0.18559 4.0372 
1.7757 0.36823 5.9138 
5.3723 6.2407 5.7806 
0.21644 3.7808 3.3497 
2.6265 3.899 1.6979 
0.3866 1.9508 3.0997 
3.6938 3.77 3.7313 
5.8718 2.0353 3.9688 
3.5109 5.6363 2.8305 
1.7203 2.2487 5.5638 
1.5803 3.6867 1.5669 
3.0784 4.595 4.0032 
5.5984 3.0316 2.1103 
1.3447 2.8824 0.78182 
4.2641 4.3921 4.4077 
4.3713 3.597 1.0757 
5.12 2.8445 1.1736 
3.4552 3.3523 0.46057 
0.61603 0.20933 2.0368 
3.6388 2.6314 1.2575 
3.4812 5.8132 4.6923 
2.0144 4.8849 3.7319 
0.12761 4.5053 4.9828 
6.0535 3.8144 0.50388 
1.9779 5.6656 4.4171 
1.4628 3.225 3.4866 
2.8802 2.8078 2.0527 
2.9808 1.9943 3.8425 
5.8299 0.94464 0.6839 
1.3856 1.7002 4.7332 
4.3441 2.4182 4.759 
4.8564 5.0202 3.7475 
2.5523 5.909 1.3213 
4.6334 0.89602 0.78831 
3.0929 0.56612 1.1685 
1.828 2.6913 1.7876 
0.94101 1.8005 1.9991 
1.8821 5.2443 5.3768 
2.4851 3.0799 1.0082 
3.3809 6.2078 1.9058 
4.0832 1.6966 3.8575 
4.1781 1.6861 0.10949 
1.2887 5.7575 6.0882 
2.2355 0.27425 0.56703 
2.1309 2.1705 0.24518 
6.1995 0.088381 0.23653 
5.7971 1.2402 2.5277 
5.6534 3.9047 2.7482 
0.48157 1.7384 4.2363 
2.0891 3.3508 2.5847 
0.32082 4.5864 2.6779 
4.4472 6.1811 5.2237 
2.5136 0.23041 4.111 
4.621 5.4314 0.63561 
1.3587 2.1782 3.7771 
3.3706 5.9989 5.7278 
3.6996 0.73457 0.29117 
2.5303 5.7456 2.4619 
3.8198 2.4296 5.6954 
3.7378 4.6158 2.2125 
5.519 6.0746 4.6851 
5.0555 3.5612 0.22251 
0.49957 1.0648 0.26176 
5.7312 4.7366 2.0145 
3.2355 6.1058 0.46614 
5.3028 4.4965 6.0949 
4.6457 1.1805 2.4742 
5.279 1.0763 1.5997 
0.52152 1.0074 2.6437 
3.8687 2.7356 3.8381 
1.85 0.75104 4.9085 
0.9725 4.5614 1.7926 
4.951 3.0816 2.9572 
2.774 5.1142 0.5911 
0.67912 3.9401 6.2554 
1.2098 1.2892 5.7053 
4.1956 0.78552 4.5676 
1.6251 3.8363 0.41947 
6.0347 3.8485 5.7594 
2.14 1.0535 1.3051 
3.2784 0.95497 3.9282 
2.923 3.0477 3.4314 
5.3841 2.6252 4.7498 
5.3209 4.3533 4.9033 
0.241 1.4343 5.3794 
3.7404 5.2299 0.3667 
2.1631 3.1628 5.189 
0.24547 5.7263 5.7249 
1.8857 4.8004 3.4683 
5.6475 4.1467 3.8669 
0.45895 2.0353 1.0188 
2.3575 5.8304 6.2158 
4.6884 4.032 3.3389 
1.0699 5.5027 3.8668 
2.5971 1.3349 3.0126 
1.2029 4.2798 3.4306 
5.5316 5.9243 3.5943 
1.1909 5.2209 2.8001 
2.8335 3.6034 4.4143 
3.6821 5.1439 3.6546 
3.8664 5.3751 4.168 
4.8746 3.4575 4.2523 
2.4285 4.0738 5.7485 
5.1575 0.69665 5.0835 
2.6496 4.0583 0.48931 
1.2193 6.1073 5.0702 
2.2026 2.7117 4.1871 
4.465 1.5404 5.4121 
3.3221 1.4769 5.864 
3.079 3.8529 2.7047 
2.7346 1.29 0.4231 
0.70948 0.35913 5.8236 
5.1439 5.5189 1.5382 
5.4482 5.7535 2.5194 
3.8863 4.7478 3.2799 
0.51449 5.5541 2.2354 
1.1417 0.1902 0.44898 
2.4595 1.8103 4.7891 
3.6393 3.5713 1.8352 
5.3487 0.57118 3.9874 
1.7232 3.7374 4.3637 
4.6437 3.8562 2.2263 
0.66578 2.3663 5.5614 
5.174 0.37754 2.9116 
6.0134 1.1269 4.5746 
4.5203 4.6361 1.4555 
4.4392 2.8344 1.9799 
2.4009 3.1515 5.4443 
3.2051 2.6523 4.7118 
4.3923 4.407 0.34022 
6.1012 5.6565 1.1885 
5.0735 3.452 5.3929 
3.8812 3.1612 2.8335 
3.6597 1.2297 2.9161 
0.12673 3.7987 1.93 
1.8481 0.57286 3.1396 
4.5987 6.1658 4.1569 
5.8786 0.18335 1.844 
4.8166 0.1529 1.9018 
0.99851 4.7251 0.62631 
0.32292 4.6945 3.8972 
0.26809 0.23778 1.0484 
2.3005 4.5103 4.7557 
1.207 2.8062 4.6785 
4.3996 2.1533 2.9144 
5.9803 3.54 4.698 
1.9341 5.8868 3.3524 
5.4233 3.8491 1.4336 
4.2711 6.217 4.6264 
2.3207 3.9256 3.4735 
3.1862 3.3371 5.5701 
0.48424 5.6371 0.42127 
0.11078 2.5946 4.6948 
5.6446 2.697 0.28302 
3.5966 1.547 1.0159 
5.1517 1.464 3.38 
3.231 2.3013 0.29425 
2.9203 0.8304 4.9915 
1.0601 2.0442 0.1359 
6.1982 1.0831 3.5154 
4.5357 5.8157 3.1256 
4.6089 1.9048 1.1354 
2.7907 4.8304 2.9484 
4.7196 5.3445 5.8891 
5.4104 4.6993 0.81138 
0.65966 3.74 4.3227 
4.1327 5.694 1.0706 
1.7727 5.3212 1.8373 
2.876 5.0251 5.7833 
0.36895 2.9279 0.19405 
1.5589 1.9127 1.1245 
4.2456 5.6014 2.0667 
0.54223 3.4012 5.3274 
3.4756 4.2208 6.1496 
5.8455 0.93144 5.9469 
1.6508 1.1571 0.32902 
4.3909 0.73375 3.5258 
2.9071 0.27702 3.0292 
4.0035 0.83314 1.7024 
0.76428 2.8887 1.738 
6.0241 1.9167 4.705 
1.6978 5.5903 0.73058 
2.8363 0.49353 6.0419 
1.9663 4.5878 1.1229 
0.88616 4.8552 5.6967 
4.785 0.77284 6.0986 
5.9893 2.7786 5.6378 
5.6298 5.5219 0.17162 
1.5496 6.1656 2.4125 
4.9919 1.5615 4.45 
1.4695 0.85907 2.1562 
1.4541 1.5606 2.9467 
4.3543 2.6909 0.41707 
5.232 1.6946 0.15224 
0.93693 1.0013 3.6687 
1.0163 3.6829 2.5247 
3.8407 0.62152 5.5636 
2.1004 1.7517 2.137 
3.5638 1.6545 4.8106 
3.0501 1.2875 1.9939 
0.33192 5.5874 4.662 
4.8999 2.4466 3.8097 
6.1981 2.9696 1.1913 
4.3983 4.3332 5.5075 
3.5182 4.325 1.0471 
2.1971 2.3588 3.0706 
1.0173 1.0011 1.2043 
2.267 1.3539 5.7664 
5.7298 1.9463 1.096 
1.4233 0.17455 4.0946 
2.8142 4.9488 1.7744 
3.2898 2.2151 2.8294 
3.8634 5.214 5.2567 
1.1965 2.5878 2.6913 
3.3417 4.3093 5.0544 
3.9333 1.8869 1.9986 
2.038 1.2758 3.942 
0.83176 5.6064 1.4226 
2.7571 2.3516 5.6661 
5.786 5.1259 4.2843 
0.076643 4.6353 1.174 
4.7911 4.8537 2.6027 
2.4339 6.2233 5.2025 
4.1757 3.4045 5.9834 
6.1375 0.26639 5.1774 
0.87293 1.3282 3.1785 
5.6915 2.2907 2.9503 
5.2679 2.5179 0.80158 
4.0226 0.26305 2.6364 
5.7849 3.0905 3.6957 
4.8901 2.4956 5.8238 
6.2672 2.1547 2.0221 
3.0957 4.7609 3.5054 
4.8088 5.2718 4.787 
0.66814 3.7206 0.9959 
1.2051 4.7337 4.6047 
6.203 0.17494 2.8854 
3.6469 5.3699 1.1993 
5.5585 1.7717 5.3756 
2.8838 5.6193 3.7193 
0.16603 2.9713 2.6818 
1.3442 3.1033 6.0348 
5.7222 5.2331 5.4039 
0.49172 2.809 3.7309 
0.17371 5.5859 3.3219 
2.4357 0.39992 2.0844 
ITEM: TIMESTEP
387
ITEM: NUMBER OF ATOMS
256
ITEM: BOX BOUNDS
0 6.3454
0 6.3454
0 6.3454
ITEM: ATOMS x y z 
0.731041 0.764471 4.77326 
2.55454 2.04483 1.26114 
1.5274 0.0740422 1.47492 
5.08738 2.13132 1.95761 
1.45852 4.05411 5.40795 
2.90741 5.45046 4.77593 
1.95878 4.31467 2.31326 
4.02875 3.43648 4.8577 
5.63458 4.97063 3.13144 
6.2987 1.25385 1.51074 
0.0267123 0.150372 4.04745 
1.68913 0.386366 5.97089 
5.50813 6.17131 5.7601 
0.338435 3.72209 3.33854 
2.65543 3.89756 1.55227 
0.192362 1.95284 2.93553 
3.76211 3.72625 3.78972 
5.88863 2.04301 3.85091 
3.65293 5.63118 2.69071 
1.70085 2.28314 5.53396 
1.57799 3.631 1.56102 
3.12983 4.59297 4.03013 
5.51099 3.12727 2.07059 
1.2535 2.8899 0.794678 
4.33399 4.3861 4.40573 
4.35547 3.66151 0.972711 
5.08276 2.87471 1.10369 
3.40631 3.39838 0.445576 
0.641974 0.0123375 2.12209 
3.49022 2.72556 1.29294 
3.58419 6.3455 4.75087 
2.07948 4.80821 3.90276 
0.148525 4.42083 4.88708 
6.10198 3.90865 0.448594 
1.87824 5.66397 4.47846 
1.41572 3.24127 3.54251 
2.83334 2.63218 2.19277 
2.98996 1.97535 3.89271 
5.21554 6.25391 0.449814 
1.16476 1.7566 4.76424 
4.34874 2.40523 4.74309 
4.89363 5.16754 3.92963 
2.5388 6.00969 1.41173 
4.60637 0.869633 0.718891 
3.0354 0.646785 1.20472 
1.76813 2.62025 1.8282 
0.84949 1.82266 1.99568 
1.82199 5.25088 5.43903 
2.35622 3.0521 0.987625 
3.40907 0.0626938 2.00798 
4.11737 1.64036 3.77716 
4.14557 1.68877 0.0786129 
1.18065 5.69109 6.2173 
2.15221 0.292169 0.61099 
2.06514 2.20246 0.238833 
6.25915 0.104264 0.160148 
5.71228 1.39566 2.4693 
5.70799 3.87412 2.82516 
0.505875 1.62164 3.92961 
1.98455 3.27395 2.62732 
0.225832 4.57768 2.70109 
4.15699 6.24032 0.0225377 
2.66449 0.0603727 4.22225 
4.5172 5.50986 0.789239 
1.44924 2.15151 3.81611 
3.28779 6.0409 5.74297 
3.61674 0.78605 0.303736 
2.63148 5.78786 2.46098 
3.79836 2.44137 5.67893 
3.73941 4.76852 2.02694 
5.5108 6.03133 4.67273 
5.09138 3.6488 0.173818 
0.408818 1.10491 0.351836 
5.58822 4.65939 2.07479 
3.1214 6.16712 0.478724 
5.31357 4.52402 5.92533 
4.62069 1.25778 2.48531 
5.18237 1.15156 1.57517 
0.341732 0.976863 2.47566 
3.87088 2.67302 3.78846 
1.79333 0.803155 4.94112 
0.943799 4.55806 1.81213 
4.82414 3.23536 3.02067 
2.67776 5.17299 0.662425 
0.705615 4.01404 6.23474 
1.1869 1.34603 5.73147 
4.27529 0.819083 4.5643 
1.61999 3.82412 0.45125 
6.06237 3.8387 5.72236 
2.05433 1.05939 1.35291 
3.39677 0.852517 3.91917 
2.93851 3.02498 3.42035 
5.41025 2.59163 4.70976 
5.37937 4.32651 4.82844 
6.2644 1.95 6.29168 
3.65222 5.27394 0.191518 
2.1572 3.21732 5.20403 
0.252157 5.81844 5.71686 
1.92907 5.17163 2.92816 
5.80866 4.14887 3.86578 
0.402063 2.12138 1.0013 
2.26735 5.84508 6.24271 
4.8173 4.22398 3.42093 
1.1802 5.36077 3.68472 
2.69871 1.33722 3.03206 
1.30471 4.31985 3.28911 
5.53424 5.97297 3.58224 
0.915511 5.39078 2.60361 
2.87513 3.63186 4.44398 
3.94763 4.94781 3.44621 
3.89756 5.35797 4.42198 
4.93692 3.47559 4.22449 
2.43554 4.09204 5.81726 
5.22253 0.705977 5.07959 
2.63271 4.1225 0.509366 
1.20118 6.13928 5.20985 
2.23645 2.77819 4.19299 
4.47518 1.52606 5.40934 
3.27387 1.49673 5.85772 
2.94306 3.71298 2.56015 
2.65479 1.32145 0.442613 
0.632603 0.477013 5.84202 
5.43396 5.51164 1.41369 
5.32797 5.84119 2.44696 
3.92772 4.09477 2.8127 
6.29597 5.50156 2.11559 
1.03008 0.184461 0.504657 
2.3326 1.83873 4.77259 
3.68975 3.71288 1.7975 
5.30629 0.588895 4.01377 
1.7897 3.80364 4.36116 
4.77384 3.9305 2.18112 
0.664042 2.40446 5.57594 
5.28216 0.488346 2.9169 
6.04427 1.18235 4.50113 
4.63007 4.6516 1.40313 
4.41993 2.9514 1.9151 
2.42509 3.16125 6.2908 
3.23801 2.65998 4.7029 
4.42983 4.50748 0.264121 
6.26082 5.5603 0.705081 
5.09418 3.44231 5.35803 
3.76797 3.0477 2.73714 
3.63238 0.920712 2.74157 
0.0269383 3.8081 1.92728 
1.88809 0.715307 3.10365 
4.57225 6.17432 4.23441 
5.85159 0.379287 1.98002 
4.95446 0.124802 1.47381 
1.83216 4.79836 0.0509903 
0.428744 4.63484 3.86274 
0.176057 0.200597 1.17695 
2.3605 4.53165 4.87342 
1.24168 2.83184 4.66935 
4.47641 2.23448 2.86449 
6.05229 3.44077 4.66424 
1.93376 6.09767 3.51234 
5.42746 3.902 1.28471 
4.5114 6.2062 5.32073 
2.35534 3.92048 3.43076 
3.19604 3.37944 5.54438 
0.875819 4.82772 0.603582 
0.150968 2.37587 4.66533 
5.6174 2.73762 0.214882 
3.53432 1.63201 1.0019 
5.1224 1.46848 3.38502 
3.16629 2.34092 0.27806 
2.88628 0.835447 5.00515 
1.01008 2.06571 0.145465 
6.13187 1.01311 3.41053 
4.56173 5.86648 3.18948 
4.57709 1.89594 1.05527 
2.9658 4.74065 2.85517 
4.79408 5.42504 6.09157 
5.42415 4.79498 0.613245 
0.730209 3.70349 4.30707 
3.97761 0.0661844 1.07271 
1.72806 5.3691 1.86767 
2.84136 5.06264 5.80469 
0.342338 2.99235 0.140006 
1.47214 1.90749 1.12047 
4.39072 5.64003 1.8591 
0.588286 3.42132 5.3198 
3.48713 4.26693 6.14552 
5.87923 0.917092 5.95741 
1.57005 1.16165 0.362345 
4.37119 0.613916 3.46315 
2.86509 0.245236 3.14119 
4.03147 0.944182 1.6593 
0.711705 2.90631 1.74395 
0.219411 1.47403 5.36443 
1.69538 5.61329 0.798587 
2.75469 0.526599 6.06524 
1.8571 4.59195 1.15554 
0.808367 4.90293 5.58396 
4.81825 0.686506 6.05451 
6.00322 2.77333 5.57482 
6.31016 4.83851 6.25312 
1.63157 6.19186 2.51974 
5.02405 1.59156 4.44457 
1.36132 0.835036 2.20161 
1.1693 1.50994 3.0079 
4.24959 2.69838 0.423833 
5.70852 0.871067 0.68584 
1.3405 1.0015 3.95282 
0.98161 3.67092 2.47787 
3.82848 0.6482 5.58127 
2.00321 1.67557 2.2469 
3.56573 1.63295 4.78349 
3.03444 1.41661 1.98697 
0.464748 5.53881 4.64302 
4.90889 2.46911 3.79303 
6.1583 3.04472 1.13849 
4.40248 4.3053 5.47108 
3.55935 4.45141 0.966655 
2.21128 2.3136 3.09005 
0.948458 0.979054 1.25438 
2.22661 1.39169 5.7816 
5.67688 1.96974 0.995616 
1.08948 6.31648 4.15863 
2.7104 4.94453 1.76893 
3.43569 2.05465 2.92001 
3.89157 5.23636 5.49031 
1.12484 2.57068 2.74722 
3.40617 4.37326 5.05618 
3.94879 1.98659 1.96074 
2.37461 1.07826 4.0279 
0.768171 5.58248 1.38386 
2.73695 2.38027 5.62351 
5.90353 5.14359 4.23049 
6.32552 4.66157 1.26774 
4.66366 4.93497 2.61275 
2.34032 6.25112 5.24924 
4.18091 3.41462 5.99099 
6.22348 0.297623 5.12466 
0.882034 0.340358 3.17635 
5.54549 2.39153 2.88375 
5.20559 1.65782 0.0843063 
4.38943 0.209981 2.40027 
5.80573 3.10424 3.63977 
4.86039 2.49972 5.8103 
6.1706 2.24768 1.93096 
2.8312 5.52341 3.57337 
4.83766 5.23108 4.99808 
0.660125 3.79443 1.01367 
1.23696 4.73576 4.59213 
6.24275 0.050524 2.89257 
3.49753 5.5012 1.28142 
5.5463 1.76612 5.38274 
3.6635 6.1535 3.68493 
0.0870067 2.98766 2.65234 
1.35234 3.12714 6.04685 
5.86531 5.20071 5.30677 
0.486815 2.70314 3.6934 
0.177821 5.55118 3.41566 
2.43497 0.511968 2.17722 
