  LAMMPS description
 
     376   atoms
     144   bonds
     276   angles
     292   dihedrals
 
      12   atom types
      14   bond types
      26   angle types
      26   dihedral types
 
       0   13.830000     xlo xhi
       0   15.076324     ylo yhi
       0   18.679434     zlo zhi
  2.5472629      3.8180768      2.6577293     xy xz yz

  Masses

       1   12.010000
       2   12.010000
       3   12.010000
       4   12.010000
       5   16.000000
       6   16.000000
       7   12.010000
       8   12.010000
       9   12.010000
      10   1.0100000
      11   1.0100000
      12   35.450000

   Atoms

       1       1       1    0.000000   17.011000    4.998000   12.819000
       2       1       1    0.000000   17.043381    3.573077   12.871808
       3       1       1    0.000000   15.915095    2.735207   12.336702
       4       1       1    0.000000   14.794604    3.369632   11.696502
       5       1       1    0.000000   14.731381    4.856867   11.694876
       6       1       1    0.000000   15.778698    5.638585   12.268348
       7       1       1    0.000000   15.397248    6.761735   13.149217
       8       1       1    0.000000   16.284289    6.776110   14.282586
       9       1       1    0.000000   17.338655    5.758088   14.109956
      10       1       1    0.000000   17.814440    5.158677   15.329466
      11       1       1    0.000000   17.811355    3.688841   15.361595
      12       1       1    0.000000   17.357784    2.980229   14.220280
      13       1       1    0.000000   16.504435    1.797705   14.428462
      14       1       1    0.000000   15.649652    1.608911   13.277635
      15       1       1    0.000000   14.368975    1.029225   13.518641
      16       1       1    0.000000   13.247376    1.716184   12.865026
      17       1       1    0.000000   13.444362    2.834153   12.008612
      18       1       1    0.000000   12.603318    4.005550   12.232855
      19       1       1    0.000000   13.353295    5.242600   12.033291
      20       1       1    0.000000   12.988128    6.436318   12.712096
      21       1       1    0.000000   14.071767    7.213014   13.331688
      22       1       1    0.000000   13.642719    7.641768   14.680513
      23       1       1    0.000000   14.525184    7.787749   15.771893
      24       1       1    0.000000   15.875977    7.289465   15.546302
      25       1       1    0.000000   16.404153    6.729857   16.773526
      26       1       1    0.000000   17.319015    5.637050   16.670440
      27       1       1    0.000000   17.030200    4.450548   17.480564
      28       1       1    0.000000   17.322749    3.261388   16.676761
      29       1       1    0.000000   16.548127    2.088484   16.852471
      30       1       1    0.000000   16.187384    1.275284   15.711907
      31       1       1    0.000000   14.896489    0.616827   15.984298
      32       1       1    0.000000   13.982794    0.573183   14.877878
      33       1       1    0.000000   12.612139    1.052435   15.124919
      34       1       1    0.000000   12.264719    1.811654   13.926138
      35       1       1    0.000000   11.330013    2.868767   13.987932
      36       1       1    0.000000   11.481819    3.984973   13.087387
      37       1       1    0.000000   11.165870    5.174787   13.858413
      38       1       1    0.000000   11.881267    6.376383   13.684989
      39       1       1    0.000000   12.311236    7.084205   14.902010
      40       1       1    0.000000   11.886661    6.731445   16.192160
      41       1       1    0.000000   12.766251    6.944167   17.372814
      42       1       1    0.000000   14.095555    7.461860   17.160499
      43       1       1    0.000000   15.270274    6.753897   17.733004
      44       1       1    0.000000   15.027463    5.548566   18.442290
      45       1       1    0.000000   15.943991    4.418684   18.398712
      46       1       1    0.000000   15.149662    3.190073   18.591369
      47       1       1    0.000000   15.456533    2.016872   17.835280
      48       1       1    0.000000   14.410276    1.098389   17.333708
      49       1       1    0.000000   13.032047    1.488517   17.539419
      50       1       1    0.000000   12.082297    1.417819   16.400617
      51       1       1    0.000000   11.173633    2.586698   16.463216
      52       1       1    0.000000   10.785669    3.255262   15.277494
      53       1       1    0.000000   10.823451    4.716917   15.211432
      54       1       1    0.000000   11.106393    5.506415   16.347183
      55       1       1    0.000000   11.465068    4.855850   17.605403
      56       1       1    0.000000   11.602178    3.440736   17.594524
      57       1       1    0.000000   12.724811    2.754136   18.248011
      58       1       1    0.000000   13.748728    3.568741   18.786420
      59       1       1    0.000000   13.669928    5.022754   18.660392
      60       1       1    0.000000   12.522257    5.710564   18.179361
      61       2       1    0.000000   12.951007   11.571812   14.311176
      62       2       1    0.000000   12.963993   12.977163   14.565107
      63       2       1    0.000000   11.870516   13.648060   15.368248
      64       2       1    0.000000   10.755247   12.877818   15.817443
      65       2       1    0.000000   10.696461   11.452025   15.564614
      66       2       1    0.000000   11.721884   10.851504   14.792243
      67       2       1    0.000000   11.296045    9.980796   13.702630
      68       2       1    0.000000   12.214026   10.070726   12.580560
      69       2       1    0.000000   13.239980   11.073886   12.901710
      70       2       1    0.000000   13.632885   11.931181   11.824265
      71       2       1    0.000000   13.650544   13.379539   12.095474
      72       2       1    0.000000   13.183489   13.818724   13.363900
      73       2       1    0.000000   12.239110   14.929842   13.502467
      74       2       1    0.000000   11.506485   14.960170   14.757738
      75       2       1    0.000000   10.204284   15.557299   14.762753
      76       2       1    0.000000    9.100704   14.675349   15.186160
      77       2       1    0.000000    9.379041   13.374574   15.696946
      78       2       1    0.000000    8.422757   12.276651   15.541240
      79       2       1    0.000000    9.273752   11.082263   15.381914
      80       2       1    0.000000    8.954554   10.129091   14.380811
      81       2       1    0.000000    9.976604    9.491796   13.575572
      82       2       1    0.000000    9.455623    9.171366   12.244616
      83       2       1    0.000000   10.336050    9.408796   11.156623
      84       2       1    0.000000   11.771158    9.745688   11.271654
      85       2       1    0.000000   12.218083   10.613204   10.147345
      86       2       1    0.000000   13.122635   11.706209   10.432217
      87       2       1    0.000000   12.843893   13.072236    9.875750
      88       2       1    0.000000   13.221016   14.110917   10.882164
      89       2       1    0.000000   12.320043   15.188528   11.095414
      90       2       1    0.000000   11.856921   15.710916   12.384928
      91       2       1    0.000000   10.562568   16.408534   12.402846
      92       2       1    0.000000    9.713524   16.279021   13.548102
      93       2       1    0.000000    8.346374   15.781920   13.267330
      94       2       1    0.000000    7.949638   14.850014   14.327559
      95       2       1    0.000000    7.008734   13.799677   14.082867
      96       2       1    0.000000    7.302340   12.479867   14.684705
      97       2       1    0.000000    7.119172   11.548903   13.575357
      98       2       1    0.000000    7.862158   10.351660   13.463284
      99       2       1    0.000000    8.044779    9.678565   12.169250
     100       2       1    0.000000    7.537273   10.354771   11.006578
     101       2       1    0.000000    8.488560   10.603642    9.918139
     102       2       1    0.000000    9.838943   10.188653   10.025133
     103       2       1    0.000000   10.966490   10.869953    9.386591
     104       2       1    0.000000   10.682493   12.153707    8.865962
     105       2       1    0.000000   11.626281   13.245407    9.144611
     106       2       1    0.000000   10.702367   14.328487    9.430311
     107       2       1    0.000000   11.018731   15.232790   10.451234
     108       2       1    0.000000   10.003245   16.055557   11.080068
     109       2       1    0.000000    8.633190   15.826925   10.786421
     110       2       1    0.000000    7.789077   15.625862   11.961521
     111       2       1    0.000000    6.825919   14.544373   11.654549
     112       2       1    0.000000    6.478287   13.627990   12.702129
     113       2       1    0.000000    6.520785   12.182277   12.409018
     114       2       1    0.000000    6.717104   11.618734   11.115065
     115       2       1    0.000000    7.080776   12.594518   10.048388
     116       2       1    0.000000    7.090210   14.026991   10.273552
     117       2       1    0.000000    8.242192   14.837651    9.748874
     118       2       1    0.000000    9.304353   14.129485    9.098576
     119       2       1    0.000000    9.322198   12.673119    8.884892
     120       2       1    0.000000    8.228036   11.919804    9.385796
     121       3       1    0.000000    2.962943   12.492353    5.685769
     122       3       1    0.000000    2.928147   13.917115    5.632656
     123       3       1    0.000000    4.055423   14.756381    6.167295
     124       3       1    0.000000    5.176842   14.124459    6.807937
     125       3       1    0.000000    5.242625   12.637502    6.809804
     126       3       1    0.000000    4.196601   11.853958    6.236465
     127       3       1    0.000000    4.580976   10.732731    5.354753
     128       3       1    0.000000    3.694715   10.716596    4.221252
     129       3       1    0.000000    2.638342   11.732458    4.393834
     130       3       1    0.000000    2.161114   12.330302    3.174334
     131       3       1    0.000000    2.160495   13.799906    3.142297
     132       3       1    0.000000    2.612341   14.509225    4.283944
     133       3       1    0.000000    3.464858   15.692113    4.075506
     134       3       1    0.000000    4.319260   15.882228    5.225962
     135       3       1    0.000000    5.598381   16.464781    4.985352
     136       3       1    0.000000    6.721200   15.781215    5.639938
     137       3       1    0.000000    6.526083   14.662962    6.496319
     138       3       1    0.000000    7.369174   13.493159    6.272022
     139       3       1    0.000000    6.621460   12.254842    6.471103
     140       3       1    0.000000    6.989283   11.062096    5.792267
     141       3       1    0.000000    5.907161   10.284290    5.172167
     142       3       1    0.000000    6.337191    9.856038    3.823774
     143       3       1    0.000000    5.455387    9.707279    2.732407
     144       3       1    0.000000    4.103787   10.203374    2.957850
     145       3       1    0.000000    3.574602   10.761801    1.730679
     146       3       1    0.000000    2.657390   11.852529    1.833468
     147       3       1    0.000000    2.943386   13.039283    1.022698
     148       3       1    0.000000    2.648755   14.227745    1.826998
     149       3       1    0.000000    3.422240   15.401431    1.651908
     150       3       1    0.000000    3.781399   16.214961    2.792333
     151       3       1    0.000000    5.070592   16.876614    2.520335
     152       3       1    0.000000    5.983880   16.922706    3.626816
     153       3       1    0.000000    7.356064   16.447492    3.379991
     154       3       1    0.000000    7.704217   15.688362    4.578849
     155       3       1    0.000000    8.639707   14.631971    4.516569
     156       3       1    0.000000    8.490243   13.515836    5.417178
     157       3       1    0.000000    8.809398   12.326787    4.646591
     158       3       1    0.000000    8.096878   11.123430    4.820186
     159       3       1    0.000000    7.668195   10.414997    3.603015
     160       3       1    0.000000    8.091551   10.769366    2.312976
     161       3       1    0.000000    7.212803   10.554629    1.132086
     162       3       1    0.000000    5.884800   10.033670    1.343790
     163       3       1    0.000000    4.708919   10.740097    0.771693
     164       3       1    0.000000    4.949296   11.945582    0.062053
     165       3       1    0.000000    4.030087   13.073329    0.104995
     166       3       1    0.000000    4.822714   14.303275   -0.087176
     167       3       1    0.000000    4.513931   15.475424    0.669543
     168       3       1    0.000000    5.557951   16.396285    1.170994
     169       3       1    0.000000    6.937012   16.009501    0.965271
     170       3       1    0.000000    7.886587   16.082842    2.104165
     171       3       1    0.000000    8.796910   14.915007    2.041746
     172       3       1    0.000000    9.185938   14.246967    3.227410
     173       3       1    0.000000    9.151316   12.785489    3.293768
     174       3       1    0.000000    8.869216   11.995737    2.158063
     175       3       1    0.000000    8.509249   12.645439    0.900032
     176       3       1    0.000000    8.369653   14.060143    0.910790
     177       3       1    0.000000    7.246349   14.744415    0.256654
     178       3       1    0.000000    6.224346   13.927663   -0.282145
     179       3       1    0.000000    6.305803   12.473791   -0.156615
     180       3       1    0.000000    7.454495   11.788424    0.325168
     181       4       1    0.000000    7.023091    5.925316    4.192552
     182       4       1    0.000000    7.008968    4.519803    3.939372
     183       4       1    0.000000    8.101679    3.847460    3.136187
     184       4       1    0.000000    9.217794    4.616530    2.687289
     185       4       1    0.000000    9.277968    6.042178    2.939634
     186       4       1    0.000000    8.252997    6.644566    3.711076
     187       4       1    0.000000    8.680274    7.515570    4.800059
     188       4       1    0.000000    7.762913    7.426573    5.922766
     189       4       1    0.000000    6.736116    6.424189    5.602105
     190       4       1    0.000000    6.343480    5.567519    6.679912
     191       4       1    0.000000    6.323924    4.119113    6.409340
     192       4       1    0.000000    6.789715    3.678861    5.140949
     193       4       1    0.000000    7.732900    2.566933    5.002704
     194       4       1    0.000000    8.464953    2.535340    3.747134
     195       4       1    0.000000    9.766429    1.936580    3.741689
     196       4       1    0.000000   10.870677    2.817590    3.318237
     197       4       1    0.000000   10.593529    4.118575    2.807492
     198       4       1    0.000000   11.551654    5.215360    2.961648
     199       4       1    0.000000   10.701174    6.409977    3.121832
     200       4       1    0.000000   11.021687    7.363178    4.122406
     201       4       1    0.000000   10.000398    8.002721    4.926824
     202       4       1    0.000000   10.522384    8.322648    6.257569
     203       4       1    0.000000    9.642109    8.086962    7.346022
     204       4       1    0.000000    8.206506    7.751770    7.231447
     205       4       1    0.000000    7.759199    6.885179    8.356323
     206       4       1    0.000000    6.854275    5.792578    8.071550
     207       4       1    0.000000    7.131862    4.426472    8.628231
     208       4       1    0.000000    6.752897    3.387654    7.622767
     209       4       1    0.000000    7.652338    2.308777    7.409857
     210       4       1    0.000000    8.114664    1.785802    6.120341
     211       4       1    0.000000    9.408207    1.086535    6.102009
     212       4       1    0.000000   10.256925    1.214314    4.956270
     213       4       1    0.000000   11.624715    1.710271    5.236492
     214       4       1    0.000000   12.021847    2.641979    4.176266
     215       4       1    0.000000   12.963916    3.691444    4.420324
     216       4       1    0.000000   12.672493    5.011367    3.817534
     217       4       1    0.000000   12.857019    5.942482    4.926777
     218       4       1    0.000000   12.114331    7.139896    5.039106
     219       4       1    0.000000   11.932656    7.813908    6.332811
     220       4       1    0.000000   12.440279    7.138033    7.495649
     221       4       1    0.000000   11.488967    6.890782    8.584525
     222       4       1    0.000000   10.138946    7.307166    8.477720
     223       4       1    0.000000    9.010723    6.627241    9.116853
     224       4       1    0.000000    9.293606    5.343315    9.637678
     225       4       1    0.000000    8.349019    4.252211    9.359523
     226       4       1    0.000000    9.271214    3.167687    9.074484
     227       4       1    0.000000    8.953665    2.263523    8.053786
     228       4       1    0.000000    9.968098    1.439934    7.424407
     229       4       1    0.000000   11.338341    1.667290    7.717589
     230       4       1    0.000000   12.182260    1.866712    6.542104
     231       4       1    0.000000   13.146236    2.947591    6.848612
     232       4       1    0.000000   13.494944    3.863133    5.800723
     233       4       1    0.000000   13.455162    5.308982    6.093320
     234       4       1    0.000000   13.259288    5.873150    7.387206
     235       4       1    0.000000   12.894554    4.898133    8.454355
     236       4       1    0.000000   12.883107    3.465655    8.229530
     237       4       1    0.000000   11.730684    2.656282    8.754898
     238       4       1    0.000000   10.669569    3.365703    9.405440
     239       4       1    0.000000   10.653304    4.822286    9.618123
     240       4       1    0.000000   11.748208    5.574312    9.116940
     241       1       2   -0.030000   17.970311    4.271323   11.827668
     242       1       3    0.000000   17.491584    4.051811   10.375347
     243       1       4   -0.115000   17.027197    2.841424    9.845091
     244       1       4   -0.115000   16.685559    2.697812    8.502960
     245       1       4   -0.115000   16.694564    3.783523    7.636484
     246       1       4   -0.115000   17.032019    4.997200    8.175851
     247       1       5   -0.500000   22.072923    6.649164   14.686671
     248       1       6   -0.170000   21.338584    4.515695   14.610380
     249       1       4   -0.115000   17.452123    5.123834    9.496552
     250       1       7   -0.120000   19.466808    4.382654   12.186313
     251       1       7   -0.120000   20.135537    5.758589   12.093373
     252       1       7   -0.120000   21.540793    5.655402   12.671688
     253       1       8    0.700000   21.448355    5.743957   14.133965
     254       1       9   -0.180000   21.117572    4.314832   15.978686
     255       1      10    0.115000   16.960117    1.969794   10.457483
     256       1      10    0.115000   16.391919    1.733556    8.169867
     257       1      10    0.115000   16.441402    3.771653    6.589731
     258       1      10    0.115000   17.106066    5.822280    7.516161
     259       1      10    0.115000   17.830228    6.056387    9.844760
     260       1      11    0.060000   20.013877    3.739914   11.514712
     261       1      11    0.060000   19.633937    3.975431   13.180524
     262       1      11    0.060000   20.131854    6.215094   11.106617
     263       1      11    0.060000   19.557700    6.423497   12.700059
     264       1      11    0.060000   22.207497    6.434011   12.329853
     265       1      11    0.060000   22.019825    4.696380   12.447705
     266       1      11    0.060000   20.385858    4.992682   16.413371
     267       1      11    0.060000   22.004162    4.356563   16.598274
     268       1      11    0.060000   20.738101    3.304043   16.036676
     269       2       2   -0.030000   14.078461   12.133933   15.219139
     270       2       3    0.000000   14.008540   12.102589   16.730357
     271       2       4   -0.115000   14.848801   12.940649   17.457490
     272       2       4   -0.115000   15.055325   12.857833   18.828245
     273       2       4   -0.115000   14.459075   11.780007   19.450726
     274       2       4   -0.115000   13.669177   10.874810   18.731825
     275       2       5   -0.500000   18.702220    8.935234   13.403611
     276       2       6   -0.170000   18.600392    9.402760   15.451991
     277       2       4   -0.115000   13.396194   11.048576   17.387431
     278       2       7   -0.120000   15.457087   12.194283   14.541619
     279       2       7   -0.120000   16.078139   10.815774   14.462108
     280       2       7   -0.120000   17.526067   10.908584   14.116029
     281       2       8    0.700000   18.220968    9.605060   14.292006
     282       2       9   -0.180000   19.585611    8.477464   15.588463
     283       2      10    0.115000   15.451772   13.604813   16.896473
     284       2      10    0.115000   15.717149   13.507330   19.377968
     285       2      10    0.115000   14.639461   11.716071   20.496019
     286       2      10    0.115000   13.219249    9.999593   19.130390
     287       2      10    0.115000   12.843685   10.284187   16.857469
     288       2      11    0.060000   16.124126   12.735265   15.209395
     289       2      11    0.060000   15.460524   12.728059   13.587141
     290       2      11    0.060000   16.035709   10.393058   15.462288
     291       2      11    0.060000   15.558705   10.147515   13.773437
     292       2      11    0.060000   18.012653   11.673282   14.725328
     293       2      11    0.060000   17.662349   11.176234   13.090609
     294       2      11    0.060000   19.652677    8.148688   14.565337
     295       2      11    0.060000   19.442073    7.661176   16.278928
     296       2      11    0.060000   20.496458    8.949952   15.927809
     297       3       2   -0.030000    2.002067   13.218141    6.676932
     298       3       3    0.000000    2.479575   13.436084    8.130275
     299       3       4   -0.115000    2.937863   14.647587    8.662781
     300       3       4   -0.115000    3.278989   14.791576   10.004901
     301       3       4   -0.115000    3.276755   13.704484   10.869671
     302       3       4   -0.115000    2.947561   12.488853   10.327960
     303       3       5   -0.500000   -2.100430   10.844920    3.814394
     304       3       6   -0.170000   -1.364221   12.977874    3.891950
     305       3       4   -0.115000    2.528093   12.362049    9.006699
     306       3       7   -0.120000    0.505557   13.110148    6.317180
     307       3       7   -0.120000   -0.165333   11.735453    6.409181
     308       3       7   -0.120000   -1.569894   11.839490    5.830068
     309       3       8    0.700000   -1.475419   11.749476    4.367847
     310       3       9   -0.180000   -1.143247   13.180217    2.523979
     311       3      10    0.115000    3.000844   15.520310    8.052030
     312       3      10    0.115000    3.566772   15.757737   10.337883
     313       3      10    0.115000    3.530392   13.718635   11.916353
     314       3      10    0.115000    2.881456   11.660883   10.985050
     315       3      10    0.115000    2.158566   11.427351    8.655301
     316       3      11    0.060000   -0.040832   13.754471    6.987869
     317       3      11    0.060000    0.340126   13.517752    5.322813
     318       3      11    0.060000   -0.161440   11.277456    7.395232
     319       3      11    0.060000    0.411297   11.071947    5.800398
     320       3      11    0.060000   -2.238000   11.062127    6.171958
     321       3      11    0.060000   -2.047759   12.799228    6.053596
     322       3      11    0.060000   -0.415298   12.499505    2.087311
     323       3      11    0.060000   -2.030769   13.144210    1.905357
     324       3      11    0.060000   -0.759080   14.189496    2.467519
     325       4       2   -0.030000    5.893554    5.362780    3.286735
     326       4       3    0.000000    5.959364    5.391872    1.774947
     327       4       4   -0.115000    5.111580    4.558688    1.050507
     328       4       4   -0.115000    4.907969    4.636416   -0.321210
     329       4       4   -0.115000    5.509431    5.709695   -0.946669
     330       4       4   -0.115000    6.301600    6.614021   -0.229446
     331       4       5   -0.500000    1.269187    8.565287    5.095356
     332       4       6   -0.170000    1.373910    8.092268    3.048134
     333       4       4   -0.115000    6.573725    6.443305    1.115450
     334       4       7   -0.120000    4.516356    5.303175    3.967652
     335       4       7   -0.120000    3.895889    6.682092    4.044485
     336       4       7   -0.120000    2.448630    6.592408    4.395095
     337       4       8    0.700000    1.751094    7.893066    4.209355
     338       4       9   -0.180000    0.387252    9.015685    2.908929
     339       4      10    0.115000    4.504818    3.898934    1.613208
     340       4      10    0.115000    4.242956    3.989056   -0.869592
     341       4      10    0.115000    5.331345    5.773363   -1.992525
     342       4      10    0.115000    6.754636    7.485870   -0.630901
     343       4      10    0.115000    7.129163    7.207093    1.643144
     344       4      11    0.060000    3.847994    4.759666    3.303590
     345       4      11    0.060000    4.515145    4.772347    4.923804
     346       4      11    0.060000    3.936544    7.102373    3.043118
     347       4      11    0.060000    4.418683    7.351079    4.729575
     348       4      11    0.060000    1.962136    5.820623    3.795165
     349       4      11    0.060000    2.312384    6.337194    5.424067
     350       4      11    0.060000    0.319604    9.345811    3.930938
     351       4      11    0.060000    0.530587    9.831447    2.218581
     352       4      11    0.060000   -0.522794    8.542076    2.569884
     353       5      12    0.115000    5.394310    9.034419    8.261872
     354       5       4   -0.115000    4.406486    8.902597    8.692902
     355       5       4   -0.115000    3.288782    8.648999    7.909016
     356       5      10    0.115000    3.448254    8.537661    6.857820
     357       5       4   -0.115000    1.994527    8.536976    8.440174
     358       5      10    0.115000    1.168012    8.392601    7.793527
     359       5       4   -0.115000    1.744422    8.586280    9.804714
     360       5      10    0.115000    0.752962    8.483862   10.234701
     361       5       4   -0.115000    2.863081    8.834148   10.588833
     362       5      10    0.115000    2.700697    8.954073   11.638993
     363       5       4   -0.115000    4.157478    8.945357   10.057875
     364       5      10    0.115000    4.982641    9.097532   10.704361
     365       6      12    0.115000    2.357247    5.625918    1.092499
     366       6       4   -0.115000    1.864254    6.376729    0.499057
     367       6       4   -0.115000    2.538102    7.551111    0.103161
     368       6      10    0.115000    3.582230    7.689971    0.326915
     369       6       4   -0.115000    1.849346    8.584034   -0.537267
     370       6      10    0.115000    2.357370    9.477839   -0.874368
     371       6       4   -0.115000    0.467262    8.472770   -0.679196
     372       6      10    0.115000   -0.032127    9.260010   -1.215793
     373       6       4   -0.115000   -0.205507    7.294498   -0.291516
     374       6      10    0.115000   -1.253440    7.160681   -0.498084
     375       6       4   -0.115000    0.483637    6.260161    0.346907
     376       6      10    0.115000   -0.028744    5.374553    0.698995

   Bonds

       1       1     244     243
       2       1     245     244
       3       1     246     245
       4       1     249     246
       5       1     272     271
       6       1     273     272
       7       1     274     273
       8       1     277     274
       9       1     300     299
      10       1     301     300
      11       1     302     301
      12       1     305     302
      13       1     328     327
      14       1     329     328
      15       1     330     329
      16       1     333     330
      17       1     355     354
      18       1     357     355
      19       1     359     357
      20       1     361     359
      21       1     363     354
      22       1     363     361
      23       1     367     366
      24       1     369     367
      25       1     371     369
      26       1     373     371
      27       1     375     366
      28       1     375     373
      29       2     243     242
      30       2     249     242
      31       2     271     270
      32       2     277     270
      33       2     299     298
      34       2     305     298
      35       2     327     326
      36       2     333     326
      37       3     242     241
      38       3     270     269
      39       3     298     297
      40       3     326     325
      41       4     255     243
      42       4     256     244
      43       4     257     245
      44       4     258     246
      45       4     259     249
      46       4     283     271
      47       4     284     272
      48       4     285     273
      49       4     286     274
      50       4     287     277
      51       4     311     299
      52       4     312     300
      53       4     313     301
      54       4     314     302
      55       4     315     305
      56       4     339     327
      57       4     340     328
      58       4     341     329