********************************************************************************
*                       GENERAL UTILITY LATTICE PROGRAM                        *
*                                 Julian Gale                                  *
*                      Nanochemistry Research Institute                        *
*                           Department of Chemistry                            *
*                    Curtin University, Western Australia                      *
********************************************************************************
* Version = 4.1.0 * Last modified =  21st June 2013                            *
********************************************************************************
*  optimise     - perform optimisation run                                     *
*  phonon       - calculate phonons for final geometry                         *
*  thermal      - calculate thermal conductivity for final geometry            *
*  nomodcoord   - do not mod input coordinates                                 *
*  molecule     - molecule option activated, Coulomb subtract within molecule  *
*  compare      - compare initial and final structures                         *
*  broaden_dos  - broaden density of states curves                             *
********************************************************************************

  Job Started  at 23:07.59 14th July       2013                               

  Number of CPUs =     1


  Total number of configurations input =   1

********************************************************************************
*  Input for Configuration =   1                                               *
********************************************************************************

  Formula = C300O8H66Cl2                                                

  Number of irreducible atoms/shells =     376


  Total number atoms/shells =     376

  Dimensionality = 3               :  Bulk   



  Cartesian lattice vectors (Angstroms) :

       13.830000    0.000000    0.000000
        2.547263   15.076324    0.000000
        3.818077    2.657729   18.679434

  Cell parameters (Angstroms/Degrees):

  a =      13.8300    alpha =  80.2600
  b =      15.2900    beta  =  78.5600
  c =      19.2500    gamma =  80.4100

  Initial cell volume =        3894.765978 Angs**3

  Temperature of configuration = 0.1000E+06 K 

  Pressure of configuration =         0.000 GPa 

  Fractional coordinates of asymmetric unit :

--------------------------------------------------------------------------------
   No.  Atomic       x           y          z         Charge      Occupancy
        Label      (Frac)      (Frac)     (Frac)        (e)         (Frac)  
--------------------------------------------------------------------------------
      1 C1    c    1.001772    0.210535    0.686263     0.00000    1.000000    
      2 C1    c    1.020580 *  0.102495 *  0.687333 *   0.00000    1.000000    
      3 C1    c    0.939578 *  0.064559 *  0.666615 *   0.00000    1.000000    
      4 C1    c    0.859862 *  0.116561 *  0.639902 *   0.00000    1.000000    
      5 C1    c    0.843020 *  0.214320 *  0.638831 *   0.00000    1.000000    
      6 C1    c    0.906156 *  0.256296 *  0.664474 *   0.00000    1.000000    
      7 C1    c    0.865524 *  0.324288 *  0.709979 *   0.00000    1.000000    
      8 C1    c    0.924834 *  0.315013 *  0.765601 *   0.00000    1.000000    
      9 C1    c    1.003088 *  0.240338 *  0.755376 *   0.00000    1.000000    
     10 C1    c    1.029671 *  0.184635 *  0.814372 *   0.00000    1.000000    
     11 C1    c    1.045836 *  0.086308 *  0.815656 *   0.00000    1.000000    
     12 C1    c    1.036053 *  0.049283 *  0.757411 *   0.00000    1.000000    
     13 C1    c    0.983567 * -0.027376 *  0.768974 *   0.00000    1.000000    
     14 C1    c    0.924035 * -0.017608 *  0.713566 *   0.00000    1.000000    
     15 C1    c    0.832747 * -0.049084 *  0.729198 *   0.00000    1.000000    
     16 C1    c    0.749669 *  0.003987 *  0.699807 *   0.00000    1.000000    
     17 C1    c    0.763037 *  0.085342 *  0.657086 *   0.00000    1.000000    
     18 C1    c    0.686650 *  0.162413 *  0.665759 *   0.00000    1.000000    
     19 C1    c    0.735652 *  0.241546 *  0.655213 *   0.00000    1.000000    
     20 C1    c    0.697391 *  0.309762 *  0.696434 *   0.00000    1.000000    
     21 C1    c    0.763315 *  0.352365 *  0.724915 *   0.00000    1.000000    
     22 C1    c    0.716455 *  0.371699 *  0.795849 *   0.00000    1.000000    
     23 C1    c    0.773560 *  0.362545 *  0.848902 *   0.00000    1.000000    
     24 C1    c    0.880123 *  0.334231 *  0.833805 *   0.00000    1.000000    
     25 C1    c    0.909475 *  0.276530 *  0.895102 *   0.00000    1.000000    
     26 C1    c    0.981974 *  0.202216 *  0.885841 *   0.00000    1.000000    
     27 C1    c    0.969225 *  0.117432 *  0.930703 *   0.00000    1.000000    
     28 C1    c    1.008324 *  0.046846 *  0.887500 *   0.00000    1.000000    
     29 C1    c    0.961456 * -0.029747 *  0.898314 *   0.00000    1.000000    
     30 C1    c    0.948837 * -0.067238 *  0.837820 *   0.00000    1.000000    
     31 C1    c    0.852361 * -0.099159 *  0.854469 *   0.00000    1.000000    
     32 C1    c    0.795614 * -0.090204 *  0.801041 *   0.00000    1.000000    
     33 C1    c    0.689169 * -0.061909 *  0.816245 *   0.00000    1.000000    
     34 C1    c    0.660469 * -0.003404 *  0.754145 *   0.00000    1.000000    
     35 C1    c    0.587832 *  0.069726 *  0.762603 *   0.00000    1.000000    
     36 C1    c    0.601147 *  0.155050 *  0.717688 *   0.00000    1.000000    
     37 C1    c    0.561422 *  0.225655 *  0.760783 *   0.00000    1.000000    
     38 C1    c    0.608423 *  0.302134 *  0.750612 *   0.00000    1.000000    
     39 C1    c    0.620097 *  0.340337 *  0.811962 *   0.00000    1.000000    
     40 C1    c    0.584327 *  0.300854 *  0.880915 *   0.00000    1.000000    
     41 C1    c    0.644297 *  0.291285 *  0.936699 *   0.00000    1.000000    
     42 C1    c    0.736806 *  0.321710 *  0.921013 *   0.00000    1.000000    
     43 C1    c    0.821143 *  0.268269 *  0.949493 *   0.00000    1.000000    
     44 C1    c    0.809097 *  0.186875 *  0.992428 *   0.00000    1.000000    
     45 C1    c    0.884600 *  0.110145 *  0.983327 *   0.00000    1.000000    
     46 C1    c    0.835310 *  0.030435 *  0.994516 *   0.00000    1.000000    
     47 C1    c    0.873025 * -0.037411 *  0.953455 *   0.00000    1.000000    
     48 C1    c    0.805802 * -0.080365 *  0.925456 *   0.00000    1.000000    
     49 C1    c    0.703512 * -0.053415 *  0.940393 *   0.00000    1.000000    
     50 C1    c    0.643889 * -0.044008 *  0.884770 *   0.00000    1.000000    
     51 C1    c    0.567592 *  0.032874 *  0.893764 *   0.00000    1.000000    
     52 C1    c    0.540787 *  0.088481 *  0.833805 *   0.00000    1.000000    
     53 C1    c    0.523983 *  0.185245 *  0.832734 *   0.00000    1.000000    
     54 C1    c    0.536152 *  0.221247 *  0.891140 *   0.00000    1.000000    
     55 C1    c    0.564924 *  0.162960 *  0.953883 *   0.00000    1.000000    
     56 C1    c    0.580007 *  0.071066 *  0.954793 *   0.00000    1.000000    
     57 C1    c    0.664011 *  0.017540 *  0.983756 *   0.00000    1.000000    
     58 C1    c    0.728855 *  0.058295 *  1.010309 *   0.00000    1.000000    
     59 C1    c    0.712458 *  0.155618 *  1.008703 *   0.00000    1.000000    
     60 C1    c    0.631685 *  0.206472 *  0.981347 *   0.00000    1.000000    
     61 C1    c    0.616074 *  0.630809 *  0.769724 *   0.00000    1.000000    
     62 C1    c    0.601771 *  0.736544 *  0.777968 *   0.00000    1.000000    
     63 C1    c    0.501764 *  0.772426 *  0.815603 *   0.00000    1.000000    
     64 C1    c    0.429655 *  0.719235 *  0.849062 *   0.00000    1.000000    
     65 C1    c    0.442808 *  0.623564 *  0.841674 *   0.00000    1.000000    
     66 C1    c    0.527065 *  0.584799 *  0.801202 *   0.00000    1.000000    
     67 C1    c    0.518312 *  0.525305 *  0.752646 *   0.00000    1.000000    
     68 C1    c    0.590267 *  0.541007 *  0.687655 *   0.00000    1.000000    
     69 C1    c    0.644279 *  0.611283 *  0.694989 *   0.00000    1.000000    
     70 C1    c    0.669103 *  0.673582 *  0.636582 *   0.00000    1.000000    
     71 C1    c    0.655202 *  0.769859 *  0.643917 *   0.00000    1.000000    
     72 C1    c    0.618724 *  0.798162 *  0.709497 *   0.00000    1.000000    
     73 C1    c    0.544065 *  0.876036 *  0.713994 *   0.00000    1.000000    
     74 C1    c    0.472043 *  0.859841 *  0.778771 *   0.00000    1.000000    
     75 C1    c    0.372818 *  0.894702 *  0.779681 *   0.00000    1.000000    
     76 C1    c    0.296978 *  0.840158 *  0.816299 *   0.00000    1.000000    
     77 C1    c    0.325190 *  0.754229 *  0.849223 *   0.00000    1.000000    
     78 C1    c    0.273395 *  0.681385 *  0.842906 *   0.00000    1.000000    
     79 C1    c    0.345713 *  0.601332 *  0.837606 *   0.00000    1.000000    
     80 C1    c    0.338366 *  0.540978 *  0.793172 *   0.00000    1.000000    
     81 C1    c    0.426376 *  0.501889 *  0.749273 *   0.00000    1.000000    
     82 C1    c    0.402551 *  0.493767 *  0.680963 *   0.00000    1.000000    
     83 C1    c    0.471595 *  0.509082 *  0.618916 *   0.00000    1.000000    
     84 C1    c    0.567974 *  0.532574 *  0.621860 *   0.00000    1.000000    
     85 C1    c    0.595395 *  0.597183 *  0.560884 *   0.00000    1.000000    
     86 C1    c    0.643988 *  0.667288 *  0.568058 *   0.00000    1.000000    
     87 C1    c    0.615826 *  0.756931 *  0.533260 *   0.00000    1.000000    
     88 C1    c    0.622765 *  0.819352 *  0.579889 *   0.00000    1.000000    
     89 C1    c    0.553543 *  0.896913 *  0.584279 *   0.00000    1.000000    
     90 C1    c    0.513505 *  0.925379 *  0.652696 *   0.00000    1.000000    
     91 C1    c    0.409063 *  0.960932 *  0.653446 *   0.00000    1.000000    
     92 C1    c    0.340168 *  0.945815 *  0.715868 *   0.00000    1.000000    
     93 C1    c    0.243985 *  0.922285 *  0.712762 *   0.00000    1.000000    
     94 C1    c    0.217206 *  0.856843 *  0.774328 *   0.00000    1.000000    
     95 C1    c    0.167929 *  0.787752 *  0.768171 *   0.00000    1.000000    
     96 C1    c    0.196865 *  0.697598 *  0.802862 *   0.00000    1.000000    
     97 C1    c    0.189296 *  0.635139 *  0.756447 *   0.00000    1.000000    
     98 C1    c    0.258734 *  0.557834 *  0.751361 *   0.00000    1.000000    
     99 C1    c    0.298247 *  0.528713 *  0.682141 *   0.00000    1.000000    
    100 C1    c    0.266796 *  0.577791 *  0.620843 *   0.00000    1.000000    
    101 C1    c    0.339345 *  0.593730 *  0.555638 *   0.00000    1.000000    
    102 C1    c    0.439557 *  0.559949 *  0.554621 *   0.00000    1.000000    
    103 C1    c    0.516297 *  0.614607 *  0.518859 *   0.00000    1.000000    
    104 C1    c    0.489405 *  0.700603 *  0.485561 *   0.00000    1.000000    
    105 C1    c    0.540324 *  0.773162 *  0.492360 *   0.00000    1.000000    
    106 C1    c    0.467775 *  0.853784 *  0.497071 *   0.00000    1.000000    
    107 C1    c    0.474691 *  0.913815 *  0.541451 *   0.00000    1.000000    
    108 C1    c    0.385371 *  0.953350 *  0.585082 *   0.00000    1.000000    
    109 C1    c    0.292925 *  0.931051 *  0.581763 *   0.00000    1.000000    
    110 C1    c    0.220666 *  0.915264 *  0.646861 *   0.00000    1.000000    
    111 C1    c    0.169069 *  0.842610 *  0.640223 *   0.00000    1.000000    
    112 C1    c    0.143756 *  0.780189 *  0.699700 *   0.00000    1.000000    
    113 C1    c    0.156628 *  0.685570 *  0.692366 *   0.00000    1.000000    
    114 C1    c    0.195207 *  0.658196 *  0.626411 *   0.00000    1.000000    
    115 C1    c    0.222363 *  0.723504 *  0.564096 *   0.00000    1.000000    
    116 C1    c    0.209254 *  0.813452 *  0.571216 *   0.00000    1.000000    
    117 C1    c    0.285712 *  0.868318 *  0.535027 *   0.00000    1.000000    
    118 C1    c    0.371625 *  0.830803 *  0.493484 *   0.00000    1.000000    
    119 C1    c    0.384851 *  0.735502 *  0.486631 *   0.00000    1.000000    
    120 C1    c    0.311276 *  0.683411 *  0.521001 *   0.00000    1.000000    
    121 C1    c   -0.001790 *  0.789465 *  0.313714 *   0.00000    1.000000    
    122 C1    c   -0.020599 *  0.897505 *  0.312643 *   0.00000    1.000000    
    123 C1    c    0.060404 *  0.935441 *  0.333361 *   0.00000    1.000000    
    124 C1    c    0.140120 *  0.883439 *  0.360075 *   0.00000    1.000000    
    125 C1    c    0.156962 *  0.785680 *  0.361146 *   0.00000    1.000000    
    126 C1    c    0.093826 *  0.743704 *  0.335503 *   0.00000    1.000000    
    127 C1    c    0.134458 *  0.675713 *  0.289998 *   0.00000    1.000000    
    128 C1    c    0.075148 *  0.684987 *  0.234375 *   0.00000    1.000000    
    129 C1    c   -0.003107 *  0.759662 *  0.244601 *   0.00000    1.000000    
    130 C1    c   -0.029689 *  0.815365 *  0.185605 *   0.00000    1.000000    
    131 C1    c   -0.045854 *  0.913693 *  0.184320 *   0.00000    1.000000    
    132 C1    c   -0.036071 *  0.950717 *  0.242566 *   0.00000    1.000000    
    133 C1    c    0.016415 *  1.027376 *  0.231003 *   0.00000    1.000000    
    134 C1    c    0.075947 *  1.017609 *  0.286411 *   0.00000    1.000000    
    135 C1    c    0.167234 *  1.049085 *  0.270779 *   0.00000    1.000000    
    136 C1    c    0.250312 *  0.996014 *  0.300170 *   0.00000    1.000000    
    137 C1    c    0.236944 *  0.914659 *  0.342890 *   0.00000    1.000000    
    138 C1    c    0.313332 *  0.837587 *  0.334218 *   0.00000    1.000000    
    139 C1    c    0.264330 *  0.758455 *  0.344764 *   0.00000    1.000000    
    140 C1    c    0.302591 *  0.690239 *  0.303542 *   0.00000    1.000000    
    141 C1    c    0.236666 *  0.647635 *  0.275062 *   0.00000    1.000000    
    142 C1    c    0.283527 *  0.628302 *  0.204128 *   0.00000    1.000000    
    143 C1    c    0.226422 *  0.637455 *  0.151075 *   0.00000    1.000000    
    144 C1    c    0.119859 *  0.665770 *  0.166172 *   0.00000    1.000000    
    145 C1    c    0.090507 *  0.723470 *  0.104875 *   0.00000    1.000000    
    146 C1    c    0.018008 *  0.797784 *  0.114136 *   0.00000    1.000000    
    147 C1    c    0.030757 *  0.882568 *  0.069274 *   0.00000    1.000000    
    148 C1    c   -0.008343 *  0.953155 *  0.112477 *   0.00000    1.000000    
    149 C1    c    0.038525 *  1.029748 *  0.101663 *   0.00000    1.000000    
    150 C1    c    0.051145 *  1.067238 *  0.162157 *   0.00000    1.000000    
    151 C1    c    0.147621 *  1.099159 *  0.145508 *   0.00000    1.000000    
    152 C1    c    0.204368 *  1.090205 *  0.198935 *   0.00000    1.000000    
    153 C1    c    0.310812 *  1.061909 *  0.183731 *   0.00000    1.000000    
    154 C1    c    0.339513 *  1.003404 *  0.245832 *   0.00000    1.000000    
    155 C1    c    0.412150 *  0.930275 *  0.237373 *   0.00000    1.000000    
    156 C1    c    0.398835 *  0.844951 *  0.282289 *   0.00000    1.000000    
    157 C1    c    0.438560 *  0.774346 *  0.239194 *   0.00000    1.000000    
    158 C1    c    0.391559 *  0.697866 *  0.249365 *   0.00000    1.000000    
    159 C1    c    0.379885 *  0.659664 *  0.188014 *   0.00000    1.000000    
    160 C1    c    0.415655 *  0.699147 *  0.119061 *   0.00000    1.000000    
    161 C1    c    0.355684 *  0.708715 *  0.063278 *   0.00000    1.000000    
    162 C1    c    0.263176 *  0.678291 *  0.078964 *   0.00000    1.000000    
    163 C1    c    0.178839 *  0.731732 *  0.050483 *   0.00000    1.000000    
    164 C1    c    0.190885 *  0.813125 *  0.007548 *   0.00000    1.000000    
    165 C1    c    0.115382 *  0.889856 *  0.016649 *   0.00000    1.000000    
    166 C1    c    0.164672 *  0.969566 *  0.005461 *   0.00000    1.000000    
    167 C1    c    0.126957 *  1.037412 *  0.046522 *   0.00000    1.000000    
    168 C1    c    0.194179 *  1.080366 *  0.074520 *   0.00000    1.000000    
    169 C1    c    0.296470 *  1.053416 *  0.059584 *   0.00000    1.000000    
    170 C1    c    0.356093 *  1.044009 *  0.115207 *   0.00000    1.000000    
    171 C1    c    0.432389 *  0.967127 *  0.106213 *   0.00000    1.000000    
    172 C1    c    0.459195 *  0.911519 *  0.166172 *   0.00000    1.000000    
    173 C1    c    0.475998 *  0.814755 *  0.167243 *   0.00000    1.000000    
    174 C1    c    0.463830 *  0.778754 *  0.108836 *   0.00000    1.000000    
    175 C1    c    0.435058 *  0.837041 *  0.046093 *   0.00000    1.000000    
    176 C1    c    0.419974 *  0.928934 *  0.045183 *   0.00000    1.000000    
    177 C1    c    0.335971 *  0.982460 *  0.016221 *   0.00000    1.000000    
    178 C1    c    0.271126 *  0.941706 * -0.010332 *   0.00000    1.000000    
    179 C1    c    0.287524 *  0.844383 * -0.008726 *   0.00000    1.000000    
    180 C1    c    0.368297 *  0.793528 *  0.018630 *   0.00000    1.000000    
    181 C1    c    0.383908 *  0.369191 *  0.230253 *   0.00000    1.000000    
    182 C1    c    0.398211 *  0.263457 *  0.222009 *   0.00000    1.000000    
    183 C1    c    0.498218 *  0.227574 *  0.184374 *   0.00000    1.000000    
    184 C1    c    0.570326 *  0.280765 *  0.150915 *   0.00000    1.000000    
    185 C1    c    0.557173 *  0.376436 *  0.158302 *   0.00000    1.000000    
    186 C1    c    0.472917 *  0.415201 *  0.198775 *   0.00000    1.000000    
    187 C1    c    0.481670 *  0.474695 *  0.247331 *   0.00000    1.000000    
    188 C1    c    0.409715 *  0.458993 *  0.312322 *   0.00000    1.000000    
    189 C1    c    0.355703 *  0.388717 *  0.304988 *   0.00000    1.000000    
    190 C1    c    0.330879 *  0.326419 *  0.363394 *   0.00000    1.000000    
    191 C1    c    0.344780 *  0.230142 *  0.356060 *   0.00000    1.000000    
    192 C1    c    0.381257 *  0.201839 *  0.290480 *   0.00000    1.000000    
    193 C1    c    0.455916 *  0.123965 *  0.285983 *   0.00000    1.000000    
    194 C1    c    0.527939 *  0.140160 *  0.221206 *   0.00000    1.000000    
    195 C1    c    0.627163 *  0.105298 *  0.220296 *   0.00000    1.000000    
    196 C1    c    0.703004 *  0.159842 *  0.183678 *   0.00000    1.000000    
    197 C1    c    0.674791 *  0.245772 *  0.150754 *   0.00000    1.000000    
    198 C1    c    0.726587 *  0.318615 *  0.157071 *   0.00000    1.000000    
    199 C1    c    0.654269 *  0.398669 *  0.162371 *   0.00000    1.000000    
    200 C1    c    0.661616 *  0.459022 *  0.206805 *   0.00000    1.000000    
    201 C1    c    0.573606 *  0.498112 *  0.250704 *   0.00000    1.000000    
    202 C1    c    0.597431 *  0.506234 *  0.319014 *   0.00000    1.000000    
    203 C1    c    0.528386 *  0.490918 *  0.381061 *   0.00000    1.000000    
    204 C1    c    0.432008 *  0.467426 *  0.378116 *   0.00000    1.000000    
    205 C1    c    0.404586 *  0.402818 *  0.439093 *   0.00000    1.000000    
    206 C1    c    0.355994 *  0.332712 *  0.431919 *   0.00000    1.000000    
    207 C1    c    0.384156 *  0.243069 *  0.466716 *   0.00000    1.000000    
    208 C1    c    0.377217 *  0.180649 *  0.420088 *   0.00000    1.000000    
    209 C1    c    0.446438 *  0.103088 *  0.415698 *   0.00000    1.000000    
    210 C1    c    0.486477 *  0.074622 *  0.347280 *   0.00000    1.000000    
    211 C1    c    0.590918 *  0.039069 *  0.346531 *   0.00000    1.000000    
    212 C1    c    0.659814 *  0.054185 *  0.284109 *   0.00000    1.000000    
    213 C1    c    0.755997 *  0.077715 *  0.287214 *   0.00000    1.000000    
    214 C1    c    0.782776 *  0.143157 *  0.225649 *   0.00000    1.000000    
    215 C1    c    0.832053 *  0.212248 *  0.231806 *   0.00000    1.000000    
    216 C1    c    0.803116 *  0.302403 *  0.197115 *   0.00000    1.000000    
    217 C1    c    0.810686 *  0.364861 *  0.243530 *   0.00000    1.000000    
    218 C1    c    0.741247 *  0.442167 *  0.248616 *   0.00000    1.000000    
    219 C1    c    0.701734 *  0.471287 *  0.317836 *   0.00000    1.000000    
    220 C1    c    0.733186 *  0.422209 *  0.379134 *   0.00000    1.000000    
    221 C1    c    0.660636 *  0.406271 *  0.444339 *   0.00000    1.000000    
    222 C1    c    0.560424 *  0.440052 *  0.445356 *   0.00000    1.000000    
    223 C1    c    0.483685 *  0.385394 *  0.481117 *   0.00000    1.000000    
    224 C1    c    0.510577 *  0.299398 *  0.514416 *   0.00000    1.000000    
    225 C1    c    0.459657 *  0.226839 *  0.507617 *   0.00000    1.000000    
    226 C1    c    0.532206 *  0.146217 *  0.502906 *   0.00000    1.000000    
    227 C1    c    0.525291 *  0.086186 *  0.458526 *   0.00000    1.000000    
    228 C1    c    0.614611 *  0.046651 *  0.414895 *   0.00000    1.000000    
    229 C1    c    0.707057 *  0.068949 *  0.418214 *   0.00000    1.000000    
    230 C1    c    0.779315 *  0.084736 *  0.353116 *   0.00000    1.000000    
    231 C1    c    0.830912 *  0.157391 *  0.359754 *   0.00000    1.000000    
    232 C1    c    0.856226 *  0.219811 *  0.300277 *   0.00000    1.000000    
    233 C1    c    0.843354 *  0.314430 *  0.307611 *   0.00000    1.000000    
    234 C1    c    0.804774 *  0.341805 *  0.373566 *   0.00000    1.000000    
    235 C1    c    0.777619 *  0.276496 *  0.435880 *   0.00000    1.000000    
    236 C1    c    0.790728 *  0.186549 *  0.428760 *   0.00000    1.000000    
    237 C1    c    0.714270 *  0.131683 *  0.464950 *   0.00000    1.000000    
    238 C1    c    0.628357 *  0.169198 *  0.506493 *   0.00000    1.000000    
    239 C1    c    0.615131 *  0.264499 *  0.513345 *   0.00000    1.000000    
    240 C1    c    0.688705 *  0.316590 *  0.478976 *   0.00000    1.000000    
    241 C7    c    1.089147 *  0.163863 *  0.638724 *  -0.03000    1.000000    
    242 C3    c    1.086483 *  0.177413 *  0.559974 *   0.00000    1.000000    
    243 C2    c    1.100286 *  0.103563 *  0.523624 *  -0.11500    1.000000    
    244 C2    c    1.094957 *  0.114977 *  0.450977 *  -0.11500    1.000000    
    245 C2    c    1.074616 *  0.200279 *  0.414841 *  -0.11500    1.000000    
    246 C2    c    1.059862 *  0.274053 *  0.450495 *  -0.11500    1.000000    
    247 O1    c    1.316807 *  0.289022 *  0.792636 *  -0.50000    1.000000    
    248 O2    c    1.283399 *  0.151802 *  0.787283 *  -0.17000    1.000000    
    249 C2    c    1.066612 *  0.262875 *  0.522553 *  -0.11500    1.000000    
    250 C5    c    1.192213 *  0.160332 *  0.657996 *  -0.12000    1.000000    
    251 C5    c    1.227999 *  0.251424 *  0.648842 *  -0.12000    1.000000    
    252 C5    c    1.325976 *  0.243040 *  0.677215 *  -0.12000    1.000000    
    253 C4    c    1.309316 *  0.232276 *  0.757839 *   0.70000    1.000000    
    254 C6    c    1.256307 *  0.137710 *  0.864962 *  -0.18000    1.000000    
    255 H1    c    1.114511 *  0.041594 *  0.551944 *   0.11500    1.000000    
    256 H1    c    1.102423 *  0.059460 *  0.426137 *   0.11500    1.000000    
    257 H1    c    1.066974 *  0.207955 *  0.363020 *   0.11500    1.000000    
    258 H1    c    1.047628 *  0.336640 *  0.425816 *   0.11500    1.000000    
    259 H1    c    1.058551 *  0.321649 *  0.543967 *   0.11500    1.000000    
    260 H2    c    1.241309 *  0.121081 *  0.626304 *   0.06000    1.000000    
    261 H2    c    1.190062 *  0.127842 *  0.712870 *   0.06000    1.000000    
    262 H2    c    1.242137 *  0.279442 *  0.594129 *   0.06000    1.000000    
    263 H2    c    1.174018 *  0.294055 *  0.675288 *   0.06000    1.000000    
    264 H2    c    1.359789 *  0.296402 *  0.658211 *   0.06000    1.000000    
    265 H2    c    1.374354 *  0.188015 *  0.663885 *   0.06000    1.000000    
    266 H2    c    1.208731 *  0.186559 *  0.881344 *   0.06000    1.000000    
    267 H2    c    1.322640 *  0.135385 *  0.886055 *   0.06000    1.000000    
    268 H2    c    1.225498 *  0.078296 *  0.875027 *   0.06000    1.000000    
    269 C7    c    0.678767 *  0.668163 *  0.811052 *  -0.03000    1.000000    
    270 C3    c    0.660273 *  0.643982 *  0.891033 *   0.00000    1.000000    
    271 C2    c    0.671859 *  0.704599 *  0.934343 *  -0.11500    1.000000    
    272 C2    c    0.651919 *  0.684128 *  1.008703 *  -0.11500    1.000000    
    273 C2    c    0.619197 *  0.603485 *  1.039860 *  -0.11500    1.000000    
    274 C2    c    0.606691 *  0.543048 *  0.997407 *  -0.11500    1.000000    
    275 O1    c    1.071415 *  0.465359 *  0.707409 *  -0.50000    1.000000    
    276 O2    c    1.044750 *  0.476718 *  0.824704 *  -0.17000    1.000000    
    277 C2    c    0.627845 *  0.562808 *  0.923315 *  -0.11500    1.000000    
    278 C5    c    0.788019 *  0.672364 *  0.776308 *  -0.12000    1.000000    
    279 C5    c    0.854596 *  0.582018 *  0.780859 *  -0.12000    1.000000    
    280 C5    c    0.963982 *  0.593348 *  0.750826 *  -0.12000    1.000000    
    281 C4    c    1.031849 *  0.505372 *  0.756982 *   0.70000    1.000000    
    282 C6    c    1.114219 *  0.395037 *  0.835785 *  -0.18000    1.000000    
    283 H1    c    0.695328 *  0.763662 *  0.909717 *   0.11500    1.000000    
    284 H1    c    0.658128 *  0.731007 *  1.039271 *   0.11500    1.000000    
    285 H1    c    0.601243 *  0.590485 *  1.093663 *   0.11500    1.000000    
    286 H1    c    0.585725 *  0.483328 *  1.017857 *   0.11500    1.000000    
    287 H1    c    0.620123 *  0.512492 *  0.896066 *   0.11500    1.000000    
    288 H2    c    0.814696 *  0.713913 *  0.800988 *   0.06000    1.000000    
    289 H2    c    0.790176 *  0.702173 *  0.720846 *   0.06000    1.000000    
    290 H2    c    0.851571 *  0.550777 *  0.834661 *   0.06000    1.000000    
    291 H2    c    0.830459 *  0.541073 *  0.753128 *   0.06000    1.000000    
    292 H2    c    0.986920 *  0.634756 *  0.776308 *   0.06000    1.000000    
    293 H2    c    0.975367 *  0.617662 *  0.697559 *   0.06000    1.000000    
    294 H2    c    1.175776 *  0.398794 *  0.802808 *   0.06000    1.000000    
    295 H2    c    1.080701 *  0.341398 *  0.825882 *   0.06000    1.000000    
    296 H2    c    1.123943 *  0.392677 *  0.888303 *   0.06000    1.000000    
    297 C7    c   -0.089165 *  0.836138 *  0.361253 *  -0.03000    1.000000    
    298 C3    c   -0.086501 *  0.822587 *  0.440003 *   0.00000    1.000000    
    299 C2    c   -0.100305 *  0.896438 *  0.476353 *  -0.11500    1.000000    
    300 C2    c   -0.094975 *  0.885024 *  0.548999 *  -0.11500    1.000000    
    301 C2    c   -0.074634 *  0.799722 *  0.585135 *  -0.11500    1.000000    
    302 C2    c   -0.059880 *  0.725948 *  0.549481 *  -0.11500    1.000000    
    303 O1    c   -0.316825 *  0.710979 *  0.207340 *  -0.50000    1.000000    
    304 O2    c   -0.283418 *  0.848199 *  0.212694 *  -0.17000    1.000000    
    305 C2    c   -0.066630 *  0.737125 *  0.477423 *  -0.11500    1.000000    
    306 C5    c   -0.192232 *  0.839668 *  0.341980 *  -0.12000    1.000000    
    307 C5    c   -0.228017 *  0.748576 *  0.351135 *  -0.12000    1.000000    
    308 C5    c   -0.325995 *  0.756961 *  0.322761 *  -0.12000    1.000000    
    309 C4    c   -0.309335 *  0.767724 *  0.242138 *   0.70000    1.000000    
    310 C6    c   -0.256325 *  0.862290 *  0.135015 *  -0.18000    1.000000    
    311 H1    c   -0.114529 *  0.958407 *  0.448033 *   0.11500    1.000000    
    312 H1    c   -0.102442 *  0.940540 *  0.573840 *   0.11500    1.000000    
    313 H1    c   -0.066992 *  0.792046 *  0.636957 *   0.11500    1.000000    
    314 H1    c   -0.047646 *  0.663360 *  0.574161 *   0.11500    1.000000    
    315 H1    c   -0.058570 *  0.678352 *  0.456010 *   0.11500    1.000000    
    316 H2    c   -0.241327 *  0.878920 *  0.373673 *   0.06000    1.000000    
    317 H2    c   -0.190081 *  0.872159 *  0.287107 *   0.06000    1.000000    
    318 H2    c   -0.242155 *  0.720558 *  0.405847 *   0.06000    1.000000    
    319 H2    c   -0.174036 *  0.705946 *  0.324689 *   0.06000    1.000000    
    320 H2    c   -0.359808 *  0.703598 *  0.341766 *   0.06000    1.000000    
    321 H2    c   -0.374372 *  0.811986 *  0.336092 *   0.06000    1.000000    
    322 H2    c   -0.208749 *  0.813441 *  0.118633 *   0.06000    1.000000    
    323 H2    c   -0.322658 *  0.864616 *  0.113922 *   0.06000    1.000000    
    324 H2    c   -0.225517 *  0.921705 *  0.124950 *   0.06000    1.000000    
    325 C7    c    0.321214 *  0.331838 *  0.188924 *  -0.03000    1.000000    
    326 C3    c    0.339709 *  0.356019 *  0.108943 *   0.00000    1.000000    
    327 C2    c    0.328123 *  0.295401 *  0.065634 *  -0.11500    1.000000    
    328 C2    c    0.348063 *  0.315872 * -0.008726 *  -0.11500    1.000000    
    329 C2    c    0.380784 *  0.396516 * -0.039883 *  -0.11500    1.000000    
    330 C2    c    0.393291 *  0.456953 *  0.002570 *  -0.11500    1.000000    
    331 O1    c   -0.071433 *  0.534642 *  0.292568 *  -0.50000    1.000000    
    332 O2    c   -0.044768 *  0.523282 *  0.175273 *  -0.17000    1.000000    
    333 C2    c    0.372137 *  0.437192 *  0.076662 *  -0.11500    1.000000    
    334 C5    c    0.211962 *  0.327636 *  0.223668 *  -0.12000    1.000000    
    335 C5    c    0.145385 *  0.417983 *  0.219118 *  -0.12000    1.000000    
    336 C5    c    0.035999 *  0.406652 *  0.249151 *  -0.12000    1.000000    
    337 C4    c   -0.031867 *  0.494629 *  0.242995 *   0.70000    1.000000    
    338 C6    c   -0.114237 *  0.604963 *  0.164191 *  -0.18000    1.000000    
    339 H1    c    0.304654 *  0.236338 *  0.090260 *   0.11500    1.000000    
    340 H1    c    0.341853 *  0.268994 * -0.039295 *   0.11500    1.000000    
    341 H1    c    0.398739 *  0.409516 * -0.093686 *   0.11500    1.000000    
    342 H1    c    0.414257 *  0.516672 * -0.017881 *   0.11500    1.000000    
    343 H1    c    0.379859 *  0.487508 *  0.103911 *   0.11500    1.000000    
    344 H2    c    0.185286 *  0.286087 *  0.198989 *   0.06000    1.000000    
    345 H2    c    0.209806 *  0.297828 *  0.279131 *   0.06000    1.000000    
    346 H2    c    0.148411 *  0.449223 *  0.165315 *   0.06000    1.000000    
    347 H2    c    0.169523 *  0.458928 *  0.246849 *   0.06000    1.000000    
    348 H2    c    0.013062 *  0.365245 *  0.223668 *   0.06000    1.000000    
    349 H2    c    0.024615 *  0.382338 *  0.302418 *   0.06000    1.000000    
    350 H2    c   -0.175794 *  0.601206 *  0.197169 *   0.06000    1.000000    
    351 H2    c   -0.080719 *  0.658602 *  0.174095 *   0.06000    1.000000    
    352 H2    c   -0.123962 *  0.607323 *  0.111674 *   0.06000    1.000000    
    353 Cl    c    0.188192 *  0.533501 *  0.446909 *   0.11500    1.000000    
    354 C2    c    0.066308 *  0.517512 *  0.480796 *  -0.11500    1.000000    
    355 C2    c   -0.000552 *  0.519952 *  0.435345 *  -0.11500    1.000000    
    356 H1    c    0.020658 *  0.530160 *  0.384969 *   0.11500    1.000000    
    357 C2    c   -0.098232 *  0.507313 *  0.463397 *  -0.11500    1.000000    
    358 H1    c   -0.144090 *  0.509034 *  0.432187 *   0.11500    1.000000    
    359 C2    c   -0.129265 *  0.492460 *  0.536740 *  -0.11500    1.000000    
    360 H1    c   -0.196323 *  0.483832 *  0.555959 *   0.11500    1.000000    
    361 C2    c   -0.062549 *  0.490020 *  0.582191 *  -0.11500    1.000000    
    362 H1    c   -0.083773 *  0.479803 *  0.632621 *   0.11500    1.000000    
    363 C2    c    0.035321 *  0.502640 *  0.554246 *  -0.11500    1.000000    
    364 H1    c    0.081048 *  0.500928 *  0.585403 *   0.11500    1.000000    
    365 Cl    c    0.030314 *  0.308992 *  0.069060 *   0.11500    1.000000    
    366 C2    c    0.012634 *  0.422954 *  0.027999 *  -0.11500    1.000000    
    367 C2    c    0.091691 *  0.472246 *  0.014401 *  -0.11500    1.000000    
    368 H1    c    0.153537 *  0.445761 *  0.028052 *   0.11500    1.000000    
    369 C2    c    0.080344 *  0.560136 * -0.019112 *  -0.11500    1.000000    
    370 H1    c    0.134460 *  0.593872 * -0.028373 *   0.11500    1.000000    
    371 C2    c   -0.010038 *  0.598849 * -0.038920 *  -0.11500    1.000000    
    372 H1    c   -0.017769 *  0.659069 * -0.061833 *   0.11500    1.000000    
    373 C2    c   -0.089107 *  0.549623 * -0.025322 *  -0.11500    1.000000    
    374 H1    c   -0.150980 *  0.576088 * -0.038866 *   0.11500    1.000000    
    375 C2    c   -0.077676 *  0.461666 *  0.008191 *  -0.11500    1.000000    
    376 H1    c   -0.131805 *  0.427921 *  0.017506 *   0.11500    1.000000    
--------------------------------------------------------------------------------



  Molecule list generated from bond lengths :

  Total number of molecules =     6

--------------------------------------------------------------------------------
Molecule No./:  Atoms
Periodicity  :  
--------------------------------------------------------------------------------
     1  0    : C1   c     1 C1   c     2 C1   c     3 C1   c     4 C1   c     5
             : C1   c     6 C1   c     7 C1   c     8 C1   c     9 C1   c    10
             : C1   c    11 C1   c    12 C1   c    13 C1   c    14 C1   c    15
             : C1   c    16 C1   c    17 C1   c    18 C1   c    19 C1   c    20
             : C1   c    21 C1   c    22 C1   c    23 C1   c    24 C1   c    25
             : C1   c    26 C1   c    27 C1   c    28 C1   c    29 C1   c    30
             : C1   c    31 C1   c    32 C1   c    33 C1   c    34 C1   c    35
             : C1   c    36 C1   c    37 C1   c    38 C1   c    39 C1   c    40
             : C1   c    41 C1   c    42 C1   c    43 C1   c    44 C1   c    45
             : C1   c    46 C1   c    47 C1   c    48 C1   c    49 C1   c    50
             : C1   c    51 C1   c    52 C1   c    53 C1   c    54 C1   c    55
             : C1   c    56 C1   c    57 C1   c    58 C1   c    59 C1   c    60
             : C7   c   241 C3   c   242 C2   c   243 C2   c   244 C2   c   245
             : C2   c   246 O1   c   247 O2   c   248 C2   c   249 C5   c   250
             : C5   c   251 C5   c   252 C4   c   253 C6   c   254 H1   c   255
             : H1   c   256 H1   c   257 H1   c   258 H1   c   259 H2   c   260
             : H2   c   261 H2   c   262 H2   c   263 H2   c   264 H2   c   265
             : H2   c   266 H2   c   267 H2   c   268
     2  0    : C1   c    61 C1   c    62 C1   c    63 C1   c    64 C1   c    65
             : C1   c    66 C1   c    67 C1   c    68 C1   c    69 C1   c    70
             : C1   c    71 C1   c    72 C1   c    73 C1   c    74 C1   c    75
             : C1   c    76 C1   c    77 C1   c    78 C1   c    79 C1   c    80
             : C1   c    81 C1   c    82 C1   c    83 C1   c    84 C1   c    85
             : C1   c    86 C1   c    87 C1   c    88 C1   c    89 C1   c    90
             : C1   c    91 C1   c    92 C1   c    93 C1   c    94 C1   c    95
             : C1   c    96 C1   c    97 C1   c    98 C1   c    99 C1   c   100
             : C1   c   101 C1   c   102 C1   c   103 C1   c   104 C1   c   105
             : C1   c   106 C1   c   107 C1   c   108 C1   c   109 C1   c   110
             : C1   c   111 C1   c   112 C1   c   113 C1   c   114 C1   c   115
             : C1   c   116 C1   c   117 C1   c   118 C1   c   119 C1   c   120
             : C7   c   269 C3   c   270 C2   c   271 C2   c   272 C2   c   273
             : C2   c   274 O1   c   275 O2   c   276 C2   c   277 C5   c   278
             : C5   c   279 C5   c   280 C4   c   281 C6   c   282 H1   c   283
             : H1   c   284 H1   c   285 H1   c   286 H1   c   287 H2   c   288
             : H2   c   289 H2   c   290 H2   c   291 H2   c   292 H2   c   293
             : H2   c   294 H2   c   295 H2   c   296
     3  0    : C1   c   121 C1   c   122 C1   c   123 C1   c   124 C1   c   125
             : C1   c   126 C1   c   127 C1   c   128 C1   c   129 C1   c   130
             : C1   c   131 C1   c   132 C1   c   133 C1   c   134 C1   c   135
             : C1   c   136 C1   c   137 C1   c   138 C1   c   139 C1   c   140
             : C1   c   141 C1   c   142 C1   c   143 C1   c   144 C1   c   145
             : C1   c   146 C1   c   147 C1   c   148 C1   c   149 C1   c   150
             : C1   c   151 C1   c   152 C1   c   153 C1   c   154 C1   c   155
             : C1   c   156 C1   c   157 C1   c   158 C1   c   159 C1   c   160
             : C1   c   161 C1   c   162 C1   c   163 C1   c   164 C1   c   165
             : C1   c   166 C1   c   167 C1   c   168 C1   c   169 C1   c   170
             : C1   c   171 C1   c   172 C1   c   173 C1   c   174 C1   c   175
             : C1   c   176 C1   c   177 C1   c   178 C1   c   179 C1   c   180
             : C7   c   297 C3   c   298 C2   c   299 C2   c   300 C2   c   301
             : C2   c   302 O1   c   303 O2   c   304 C2   c   305 C5   c   306
             : C5   c   307 C5   c   308 C4   c   309 C6   c   310 H1   c   311
             : H1   c   312 H1   c   313 H1   c   314 H1   c   315 H2   c   316
             : H2   c   317 H2   c   318 H2   c   319 H2   c   320 H2   c   321
             : H2   c   322 H2   c   323 H2   c   324
     4  0    : C1   c   181 C1   c   182 C1   c   183 C1   c   184 C1   c   185
             : C1   c   186 C1   c   187 C1   c   188 C1   c   189 C1   c   190
             : C1   c   191 C1   c   192 C1   c   193 C1   c   194 C1   c   195
             : C1   c   196 C1   c   197 C1   c   198 C1   c   199 C1   c   200
             : C1   c   201 C1   c   202 C1   c   203 C1   c   204 C1   c   205
             : C1   c   206 C1   c   207 C1   c   208 C1   c   209 C1   c   210
             : C1   c   211 C1   c   212 C1   c   213 C1   c   214 C1   c   215
             : C1   c   216 C1   c   217 C1   c   218 C1   c   219 C1   c   220
             : C1   c   221 C1   c   222 C1   c   223 C1   c   224 C1   c   225
             : C1   c   226 C1   c   227 C1   c   228 C1   c   229 C1   c   230
             : C1   c   231 C1   c   232 C1   c   233 C1   c   234 C1   c   235
             : C1   c   236 C1   c   237 C1   c   238 C1   c   239 C1   c   240
             : C7   c   325 C3   c   326 C2   c   327 C2   c   328 C2   c   329
             : C2   c   330 O1   c   331 O2   c   332 C2   c   333 C5   c   334
             : C5   c   335 C5   c   336 C4   c   337 C6   c   338 H1   c   339
             : H1   c   340 H1   c   341 H1   c   342 H1   c   343 H2   c   344
             : H2   c   345 H2   c   346 H2   c   347 H2   c   348 H2   c   349
             : H2   c   350 H2   c   351 H2   c   352
     5  0    : Cl   c   353 C2   c   354 C2   c   355 H1   c   356 C2   c   357
             : H1   c   358 C2   c   359 H1   c   360 C2   c   361 H1   c   362
             : C2   c   363 H1   c   364
     6  0    : Cl   c   365 C2   c   366 C2   c   367 H1   c   368 C2   c   369
             : H1   c   370 C2   c   371 H1   c   372 C2   c   373 H1   c   374
             : C2   c   375 H1   c   376
--------------------------------------------------------------------------------

  Brillouin zone sampling points :

--------------------------------------------------------------------------------
  Point number          x          y          z            Weight
--------------------------------------------------------------------------------
        1           0.000000   0.000000   0.000000         1.0000
--------------------------------------------------------------------------------


********************************************************************************
*  General input information                                                   *
********************************************************************************

  Species output for all configurations : 

--------------------------------------------------------------------------------
  Species    Type    Atomic    Atomic    Charge       Radii (Angs)     Library
                     Number     Mass       (e)     Cova   Ionic  VDW   Symbol
--------------------------------------------------------------------------------
    C1       Core        6      12.01   0.000000   0.770  0.000  1.530          
    C7       Core        6      12.01  -0.030000   0.770  0.000  1.530          
    C3       Core        6      12.01   0.000000   0.770  0.000  1.530          
    C2       Core        6      12.01  -0.115000   0.770  0.000  1.530          
    O1       Core        8      16.00  -0.500000   0.730  0.000  1.360          
    O2       Core        8      16.00  -0.170000   0.730  0.000  1.360          
    C5       Core        6      12.01  -0.120000   0.770  0.000  1.530          
    C4       Core        6      12.01   0.700000   0.770  0.000  1.530          
    C6       Core        6      12.01  -0.180000   0.770  0.000  1.530          
    H1       Core        1       1.01   0.115000   0.370  0.000  1.080          
    H2       Core        1       1.01   0.060000   0.370  0.000  1.080          
    Cl       Core       17      35.45   0.115000   0.990  0.000  1.650          
--------------------------------------------------------------------------------


  Lattice summation method = Wolf et al

  Modified method - smoothed energy only / correct forces

  Eta    =     0.223000 Angstrom**-1
  Cutoff =    12.000000 Angstrom

  Time limit = Infinity

  Maximum range for interatomic potentials =    100000.000000 Angstroms

  Intramolecular potentials :

--------------------------------------------------------------------------------
Atom  Types   Potential         A         B         C         D     Cutoffs(Ang)
  1     2                                                            Min    Max 
--------------------------------------------------------------------------------
C2   c C2   c Harmonic       40.7      1.40      0.00      0.00     0.000 1 Bond
                                                                    single      
C2   c C3   c Harmonic       40.7      1.40      0.00      0.00     0.000 1 Bond
                                                                    single      
C3   c C7   c Harmonic       27.5      1.51      0.00      0.00     0.000 1 Bond
                                                                    single      
H1   c C2   c Harmonic       31.8      1.08      0.00      0.00     0.000 1 Bond
                                                                    single      
C2   c Cl   c Harmonic       31.8      1.08      0.00      0.00     0.000 1 Bond
                                                                    single      
C5   c C7   c Harmonic       23.2      1.53      0.00      0.00     0.000 1 Bond
                                                                    single      
C5   c C5   c Harmonic       23.2      1.53      0.00      0.00     0.000 1 Bond
                                                                    single      
C1   c C7   c Harmonic       27.5      1.51      0.00      0.00     0.000 1 Bond
                                                                    single      
C4   c C5   c Harmonic       27.5      1.51      0.00      0.00     0.000 1 Bond
                                                                    single      
C6   c O2   c Harmonic       27.8      1.41      0.00      0.00     0.000 1 Bond
                                                                    single      
H2   c C5   c Harmonic       29.5      1.09      0.00      0.00     0.000 1 Bond
                                                                    single      
H2   c C6   c Harmonic       29.5      1.09      0.00      0.00     0.000 1 Bond
                                                                    single      
C4   c O1   c Harmonic       45.1      1.23      0.00      0.00     0.000 1 Bond
                                                                    single      
C4   c O2   c Harmonic       18.6      1.33      0.00      0.00     0.000 1 Bond
                                                                    single      
--------------------------------------------------------------------------------

  Intermolecular potentials :

--------------------------------------------------------------------------------
Atom  Types   Potential         A         B         C         D     Cutoffs(Ang)
  1     2                                                            Min    Max 
--------------------------------------------------------------------------------
C1   c C1   c Lenn/es 12  6 0.700E-01  3.55      0.00      0.00     0.000 12.000
C1   c C2   c Lenn/es 12  6 0.700E-01  3.55      0.00      0.00     0.000 12.000
C2   c C2   c Lenn/es 12  6 0.700E-01  3.55      0.00      0.00     0.000 12.000
C1   c C3   c Lenn/es 12  6 0.700E-01  3.55      0.00      0.00     0.000 12.000
C2   c C3   c Lenn/es 12  6 0.700E-01  3.55      0.00      0.00     0.000 12.000
C3   c C3   c Lenn/es 12  6 0.700E-01  3.55      0.00      0.00     0.000 12.000
C1   c C4   c Lenn/es 12  6 0.857E-01  3.65      0.00      0.00     0.000 12.000
C2   c C4   c Lenn/es 12  6 0.857E-01  3.65      0.00      0.00     0.000 12.000
C3   c C4   c Lenn/es 12  6 0.857E-01  3.65      0.00      0.00     0.000 12.000
C4   c C4   c Lenn/es 12  6 0.105      3.75      0.00      0.00     0.000 12.000
C1   c C5   c Lenn/es 12  6 0.680E-01  3.52      0.00      0.00     0.000 12.000
C2   c C5   c Lenn/es 12  6 0.680E-01  3.52      0.00      0.00     0.000 12.000
C3   c C5   c Lenn/es 12  6 0.680E-01  3.52      0.00      0.00     0.000 12.000
C4   c C5   c Lenn/es 12  6 0.832E-01  3.62      0.00      0.00     0.000 12.000
C5   c C5   c Lenn/es 12  6 0.660E-01  3.50      0.00      0.00     0.000 12.000
C1   c C6   c Lenn/es 12  6 0.680E-01  3.52      0.00      0.00     0.000 12.000
C2   c C6   c Lenn/es 12  6 0.680E-01  3.52      0.00      0.00     0.000 12.000
C3   c C6   c Lenn/es 12  6 0.680E-01  3.52      0.00      0.00     0.000 12.000
C4   c C6   c Lenn/es 12  6 0.832E-01  3.62      0.00      0.00     0.000 12.000
C5   c C6   c Lenn/es 12  6 0.660E-01  3.50      0.00      0.00     0.000 12.000
C6   c C6   c Lenn/es 12  6 0.660E-01  3.50      0.00      0.00     0.000 12.000
C1   c C7   c Lenn/es 12  6 0.680E-01  3.52      0.00      0.00     0.000 12.000
C2   c C7   c Lenn/es 12  6 0.680E-01  3.52      0.00      0.00     0.000 12.000
C3   c C7   c Lenn/es 12  6 0.680E-01  3.52      0.00      0.00     0.000 12.000
C4   c C7   c Lenn/es 12  6 0.832E-01  3.62      0.00      0.00     0.000 12.000
C5   c C7   c Lenn/es 12  6 0.660E-01  3.50      0.00      0.00     0.000 12.000
C6   c C7   c Lenn/es 12  6 0.660E-01  3.50      0.00      0.00     0.000 12.000
C7   c C7   c Lenn/es 12  6 0.660E-01  3.50      0.00      0.00     0.000 12.000
C1   c O1   c Lenn/es 12  6 0.121      3.24      0.00      0.00     0.000 12.000
C2   c O1   c Lenn/es 12  6 0.121      3.24      0.00      0.00     0.000 12.000
C3   c O1   c Lenn/es 12  6 0.121      3.24      0.00      0.00     0.000 12.000
C4   c O1   c Lenn/es 12  6 0.148      3.33      0.00      0.00     0.000 12.000
C5   c O1   c Lenn/es 12  6 0.118      3.22      0.00      0.00     0.000 12.000
C6   c O1   c Lenn/es 12  6 0.118      3.22      0.00      0.00     0.000 12.000
C7   c O1   c Lenn/es 12  6 0.118      3.22      0.00      0.00     0.000 12.000
O1   c O1   c Lenn/es 12  6 0.210      2.96      0.00      0.00     0.000 12.000
C1   c O2   c Lenn/es 12  6 0.990E-01  3.21      0.00      0.00     0.000 12.000
C2   c O2   c Lenn/es 12  6 0.990E-01  3.21      0.00      0.00     0.000 12.000
C3   c O2   c Lenn/es 12  6 0.990E-01  3.21      0.00      0.00     0.000 12.000
C4   c O2   c Lenn/es 12  6 0.121      3.30      0.00      0.00     0.000 12.000
C5   c O2   c Lenn/es 12  6 0.961E-01  3.19      0.00      0.00     0.000 12.000
C6   c O2   c Lenn/es 12  6 0.961E-01  3.19      0.00      0.00     0.000 12.000
C7   c O2   c Lenn/es 12  6 0.961E-01  3.19      0.00      0.00     0.000 12.000
O1   c O2   c Lenn/es 12  6 0.171      2.93      0.00      0.00     0.000 12.000
O2   c O2   c Lenn/es 12  6 0.140      2.90      0.00      0.00     0.000 12.000
H1   c C1   c Lenn/es 12  6 0.458E-01  2.93      0.00      0.00     0.000 12.000
H1   c C2   c Lenn/es 12  6 0.458E-01  2.93      0.00      0.00     0.000 12.000
H1   c C3   c Lenn/es 12  6 0.458E-01  2.93      0.00      0.00     0.000 12.000
H1   c C4   c Lenn/es 12  6 0.561E-01  3.01      0.00      0.00     0.000 12.000
H1   c C5   c Lenn/es 12  6 0.445E-01  2.91      0.00      0.00     0.000 12.000
H1   c C6   c Lenn/es 12  6 0.445E-01  2.91      0.00      0.00     0.000 12.000
H1   c C7   c Lenn/es 12  6 0.445E-01  2.91      0.00      0.00     0.000 12.000
H1   c O1   c Lenn/es 12  6 0.794E-01  2.68      0.00      0.00     0.000 12.000
H1   c O2   c Lenn/es 12  6 0.648E-01  2.65      0.00      0.00     0.000 12.000
H1   c H1   c Lenn/es 12  6 0.300E-01  2.42      0.00      0.00     0.000 12.000
H2   c C1   c Lenn/es 12  6 0.458E-01  2.98      0.00      0.00     0.000 12.000
H2   c C2   c Lenn/es 12  6 0.458E-01  2.98      0.00      0.00     0.000 12.000
H2   c C3   c Lenn/es 12  6 0.458E-01  2.98      0.00      0.00     0.000 12.000
H2   c C4   c Lenn/es 12  6 0.561E-01  3.06      0.00      0.00     0.000 12.000
H2   c C5   c Lenn/es 12  6 0.445E-01  2.96      0.00      0.00     0.000 12.000
H2   c C6   c Lenn/es 12  6 0.445E-01  2.96      0.00      0.00     0.000 12.000
H2   c C7   c Lenn/es 12  6 0.445E-01  2.96      0.00      0.00     0.000 12.000
H2   c O1   c Lenn/es 12  6 0.794E-01  2.72      0.00      0.00     0.000 12.000
H2   c O2   c Lenn/es 12  6 0.648E-01  2.69      0.00      0.00     0.000 12.000
H1   c H2   c Lenn/es 12  6 0.300E-01  2.46      0.00      0.00     0.000 12.000
H2   c H2   c Lenn/es 12  6 0.300E-01  2.50      0.00      0.00     0.000 12.000
C1   c Cl   c Lenn/es 12  6 0.458E-01  2.93      0.00      0.00     0.000 12.000
C2   c Cl   c Lenn/es 12  6 0.458E-01  2.93      0.00      0.00     0.000 12.000
C3   c Cl   c Lenn/es 12  6 0.458E-01  2.93      0.00      0.00     0.000 12.000
C4   c Cl   c Lenn/es 12  6 0.561E-01  3.01      0.00      0.00     0.000 12.000
C5   c Cl   c Lenn/es 12  6 0.445E-01  2.91      0.00      0.00     0.000 12.000
C6   c Cl   c Lenn/es 12  6 0.445E-01  2.91      0.00      0.00     0.000 12.000
C7   c Cl   c Lenn/es 12  6 0.445E-01  2.91      0.00      0.00     0.000 12.000
O1   c Cl   c Lenn/es 12  6 0.794E-01  2.68      0.00      0.00     0.000 12.000
O2   c Cl   c Lenn/es 12  6 0.648E-01  2.65      0.00      0.00     0.000 12.000
H1   c Cl   c Lenn/es 12  6 0.300E-01  2.42      0.00      0.00     0.000 12.000
H2   c Cl   c Lenn/es 12  6 0.300E-01  2.46      0.00      0.00     0.000 12.000
Cl   c Cl   c Lenn/es 12  6 0.300E-01  2.42      0.00      0.00     0.000 12.000
--------------------------------------------------------------------------------

  Intramolecular Three-body potentials :

  Cosine Harmonic form:

--------------------------------------------------------------------------------
Atom    Atom    Atom           Force Constants            Theta     Cutoffs  
  1       2       3               (eV)                    (deg)  1-2  1-3  2-3
--------------------------------------------------------------------------------
C2    c C2    c C2    c                  5.4639184       120.000     Bonded
C3    c C2    c C2    c                  5.4639184       120.000     Bonded
C2    c C2    c C3    c                  5.4639184       120.000     Bonded
C3    c C2    c C7    c                  6.0710205       120.000     Bonded
C2    c H1    c C2    c                  3.0355102       120.000     Bonded
C2    c C2    c Cl    c                  3.0355102       120.000     Bonded
C2    c H1    c C3    c                  3.0355102       120.000     Bonded
C5    c C5    c C7    c                  5.0606292       112.700     Bonded
C5    c C5    c C5    c                  5.0606292       112.700     Bonded
C7    c C3    c C5    c                  5.4639184       114.000     Bonded
C7    c C1    c C5    c                  5.4639184       114.000     Bonded
C7    c C1    c C1    c                  3.4691546       109.500     Bonded
C5    c C4    c C5    c                  5.4639184       111.100     Bonded
C5    c H2    c C7    c                  3.2523324       110.700     Bonded
C5    c H2    c C5    c                  3.2523324       110.700     Bonded
C5    c H2    c C4    c                  3.0355102       109.500     Bonded
C6    c H2    c O2    c                  3.0355102       109.500     Bonded
C5    c H2    c H2    c                  2.8620525       107.800     Bonded
C6    c H2    c H2    c                  2.8620525       107.800     Bonded
C7    c C1    c C5    c                  5.4639184       111.100     Bonded
C7    c C1    c C3    c                  3.4691546       109.500     Bonded
C4    c C5    c O2    c                  7.0250380       111.400     Bonded
C4    c C5    c O1    c                  6.9383091       120.400     Bonded
C4    c O1    c O2    c                  7.1984957       123.400     Bonded
O2    c C4    c C6    c                  7.1984957       116.900     Bonded
C1    c C1    c C7    c                  6.0710205       120.000     Bonded
--------------------------------------------------------------------------------

  Intramolecular Four-body potentials :

  Standard form:

--------------------------------------------------------------------------------
         Atom Types             Force cst Sign Phase Phi0         Cutoffs
   1       2       3       4       (eV)                     1-2  2-3  3-4  4-1
--------------------------------------------------------------------------------
H1    c C2    c C2    c H1    c  0.3144     -   2     0.00  Bonded              
H1    c C2    c C2    c Cl    c  0.3144     -   2     0.00  Bonded              
H1    c C2    c C2    c C2    c  0.3144     -   2     0.00  Bonded              
H1    c C2    c C2    c C3    c  0.3144     -   2     0.00  Bonded              
H1    c C2    c C3    c C7    c  0.3144     -   2     0.00  Bonded              
C7    c C5    c C5    c C5    c  0.2819E-01 +   1     0.00  Bonded              
C7    c C5    c C5    c C5    c  -.1084E-02 -   2     0.00  Bonded              
C7    c C5    c C5    c C5    c  0.4336E-02 +   3     0.00  Bonded              
C5    c C5    c C5    c H2    c  0.6505E-02 +   3     0.00  Bonded              
C7    c C5    c C5    c H2    c  0.6505E-02 +   3     0.00  Bonded              
H2    c C5    c C5    c H2    c  0.6505E-02 +   3     0.00  Bonded              
O1    c C4    c C5    c C5    c  -.6006E-02 +   1     0.00  Bonded              
O1    c C4    c C5    c C5    c  0.2663E-01 -   2     0.00  Bonded              
O1    c C4    c C5    c C5    c  -.1505E-01 +   3     0.00  Bonded              
O2    c C4    c C5    c C5    c  -.1199E-01 -   2     0.00  Bonded              
O2    c C4    c C5    c H2    c  0.2862E-02 -   2     0.00  Bonded              
C5    c C4    c O2    c C6    c  0.1012     +   1     0.00  Bonded              
C5    c C4    c O2    c C6    c  0.1111     -   2     0.00  Bonded              
O1    c C4    c O2    c C6    c  0.1111     -   2     0.00  Bonded              
C4    c O2    c C6    c H2    c  0.4293E-02 +   3     0.00  Bonded              
C1    c C7    c C5    c C5    c  0.2819E-01 +   1     0.00  Bonded              
C1    c C7    c C5    c C5    c  -.1084E-02 -   2     0.00  Bonded              
C1    c C7    c C5    c C5    c  0.4336E-02 +   3     0.00  Bonded              
C1    c C7    c C5    c H2    c  0.6505E-02 +   3     0.00  Bonded              
C1    c C1    c C7    c C3    c  0.3144     -   2     0.00  Bonded              
C1    c C1    c C7    c C5    c  0.3144     -   2     0.00  Bonded              
--------------------------------------------------------------------------------

  Bond-order two-body potentials :

--------------------------------------------------------------------------------
Atom  Types                 A                 B                  Cutoffs(Ang)   
  1     2                 ZetaA             ZetaB                Taper    Max   
--------------------------------------------------------------------------------
C1   c C1   c          1393.6000000000       430.0000000000     1.8000   2.1000
                          3.487900000          2.211900000    
--------------------------------------------------------------------------------

  Bond-order repulsive :

--------------------------------------------------------------------------------
Atom    Type         Alpha            N             Lambda          M           
 1/2     1/2                                                                    
--------------------------------------------------------------------------------
C1   c             0.00000000       0.72751000       2.21190000       3
C1   c
--------------------------------------------------------------------------------

  Bond-order attractive :

--------------------------------------------------------------------------------
Atom    Type         Alpha            N             Lambda          M           
 1/2     1/2           C              D                H                        
--------------------------------------------------------------------------------
C1   c  Theta       0.00000016       0.72751000       2.21190000       3
C1   c          38049.00000000       4.38400000      -0.93000000
--------------------------------------------------------------------------------

********************************************************************************
*  Output for configuration   1                                                *
********************************************************************************


  Components of energy : 

--------------------------------------------------------------------------------
  Interatomic potentials     =        -244.32175616 eV
  Three-body potentials      =          31.42357361 eV
  Four-body potentials       =          11.88996725 eV
  Out of plane potentials    =           0.00000000 eV
  Bond-order potentials      =       -1726.50799712 eV
  Monopole - monopole (real) =           7.59594040 eV
  Monopole - monopole (recip)=           0.00000000 eV
  Monopole - monopole (total)=           7.59594040 eV
  Wolf sum self energy       =          -7.89504576 eV
--------------------------------------------------------------------------------
  Total lattice energy       =       -1927.81531779 eV
--------------------------------------------------------------------------------
  Total lattice energy       =         -186004.7088 kJ/(mole unit cells)
--------------------------------------------------------------------------------


  Number of variables =     1125

  Maximum number of calculations  =         10000
  Maximum Hessian update interval =            10
  Maximum step size               =   1.000000000
  Maximum parameter tolerance     =   0.000010000
  Maximum function  tolerance     =   0.000010000
  Maximum gradient  tolerance     =   0.001000000
  Maximum gradient  component     =   0.010000000

  Symmetry not applied to optimisation

  Newton-Raphson optimiser to be used

  BFGS hessian update to be used

  Start of bulk optimisation :

  Cycle:      0 Energy:     -1927.815318  Gnorm:      1.019121  CPU:    4.364
  ** Hessian calculated **
  Cycle:      1 Energy:     -1949.003057  Gnorm:      0.742155  CPU:   21.300
  ** Hessian calculated **
  Cycle:      2 Energy:     -1966.872907  Gnorm:      0.386381  CPU:   34.148
  ** Hessian calculated **
  Cycle:      3 Energy:     -1973.357809  Gnorm:      0.301121  CPU:   47.020
  Cycle:      4 Energy:     -1978.786746  Gnorm:      0.190990  CPU:   57.604
  Cycle:      5 Energy:     -1980.728258  Gnorm:      0.170915  CPU:   66.192
  Cycle:      6 Energy:     -1982.347583  Gnorm:      0.126849  CPU:   76.788
  Cycle:      7 Energy:     -1983.325987  Gnorm:      0.113844  CPU:   85.140
  Cycle:      8 Energy:     -1984.161690  Gnorm:      0.120625  CPU:   95.548
  Cycle:      9 Energy:     -1985.036914  Gnorm:      0.114370  CPU:  105.988
  Cycle:     10 Energy:     -1985.741891  Gnorm:      0.106391  CPU:  114.456
  Cycle:     11 Energy:     -1986.426301  Gnorm:      0.096759  CPU:  124.860
  Cycle:     12 Energy:     -1986.875900  Gnorm:      0.088923  CPU:  133.220
  ** Hessian calculated **
  Cycle:     13 Energy:     -1987.162430  Gnorm:      0.060102  CPU:  146.000
  Cycle:     14 Energy:     -1987.492970  Gnorm:      0.064307  CPU:  156.560
  Cycle:     15 Energy:     -1987.848507  Gnorm:      0.076676  CPU:  167.004
  Cycle:     16 Energy:     -1988.247247  Gnorm:      0.075206  CPU:  177.452
  Cycle:     17 Energy:     -1988.583805  Gnorm:      0.075567  CPU:  188.208
  Cycle:     18 Energy:     -1988.934712  Gnorm:      0.074361  CPU:  199.044
  Cycle:     19 Energy:     -1989.216402  Gnorm:      0.055860  CPU:  207.524
  Cycle:     20 Energy:     -1989.445119  Gnorm:      0.055323  CPU:  218.112
  Cycle:     21 Energy:     -1989.572342  Gnorm:      0.047016  CPU:  228.772
  Cycle:     22 Energy:     -1989.723876  Gnorm:      0.047716  CPU:  237.396
  ** Hessian calculated **
  Cycle:     23 Energy:     -1989.820730  Gnorm:      0.037429  CPU:  250.304
  Cycle:     24 Energy:     -1989.898285  Gnorm:      0.033224  CPU:  260.932
  Cycle:     25 Energy:     -1989.958062  Gnorm:      0.031421  CPU:  271.924
  Cycle:     26 Energy:     -1990.028952  Gnorm:      0.033721  CPU:  282.588
  Cycle:     27 Energy:     -1990.101913  Gnorm:      0.029881  CPU:  293.456
  Cycle:     28 Energy:     -1990.182444  Gnorm:      0.041327  CPU:  304.024
  Cycle:     29 Energy:     -1990.285459  Gnorm:      0.040464  CPU:  314.624
  Cycle:     30 Energy:     -1990.412566  Gnorm:      0.041047  CPU:  325.056
  Cycle:     31 Energy:     -1990.515726  Gnorm:      0.044663  CPU:  333.496
  Cycle:     32 Energy:     -1990.647717  Gnorm:      0.050636  CPU:  344.008
  ** Hessian calculated **
  Cycle:     33 Energy:     -1990.983046  Gnorm:      0.047406  CPU:  365.420
  Cycle:     34 Energy:     -1991.202651  Gnorm:      0.051184  CPU:  375.900
  ** Hessian calculated **
  Cycle:     35 Energy:     -1991.626200  Gnorm:      0.052834  CPU:  395.472
  Cycle:     36 Energy:     -1991.847243  Gnorm:      0.042118  CPU:  404.436
  Cycle:     37 Energy:     -1992.057231  Gnorm:      0.033797  CPU:  419.668
  Cycle:     38 Energy:     -1992.075544  Gnorm:      0.038312  CPU:  430.512
  ** Hessian calculated **
  Cycle:     39 Energy:     -1992.444638  Gnorm:      0.038342  CPU:  447.704
  Cycle:     40 Energy:     -1992.718221  Gnorm:      0.017960  CPU:  456.532
  Cycle:     41 Energy:     -1992.793492  Gnorm:      0.016011  CPU:  465.156
  Cycle:     42 Energy:     -1992.820490  Gnorm:      0.012403  CPU:  473.728
  Cycle:     43 Energy:     -1992.842241  Gnorm:      0.008311  CPU:  482.336
  Cycle:     44 Energy:     -1992.852291  Gnorm:      0.005312  CPU:  492.880
  Cycle:     45 Energy:     -1992.859841  Gnorm:      0.004353  CPU:  501.256
  Cycle:     46 Energy:     -1992.861323  Gnorm:      0.003686  CPU:  511.864
  Cycle:     47 Energy:     -1992.861712  Gnorm:      0.003653  CPU:  522.312
  Cycle:     48 Energy:     -1992.861712  Gnorm:      0.003653  CPU:  532.788
  ** Hessian calculated **
  Cycle:     49 Energy:     -1992.870864  Gnorm:      0.001936  CPU:  545.692
  Cycle:     50 Energy:     -1992.873166  Gnorm:      0.001814  CPU:  554.360
  Cycle:     51 Energy:     -1992.873436  Gnorm:      0.001745  CPU:  571.196
  Cycle:     52 Energy:     -1992.873711  Gnorm:      0.001759  CPU:  584.148
  Cycle:     53 Energy:     -1992.873711  Gnorm:      0.001759  CPU:  592.568
  ** Hessian calculated **
  Cycle:     54 Energy:     -1992.876435  Gnorm:      0.001318  CPU:  611.604
  Cycle:     55 Energy:     -1992.876435  Gnorm:      0.001318  CPU:  628.808
  ** Hessian calculated **
  Cycle:     56 Energy:     -1992.876530  Gnorm:      0.001305  CPU:  647.900
  Cycle:     57 Energy:     -1992.876530  Gnorm:      0.001305  CPU:  656.404
  ** Hessian calculated **
  Cycle:     58 Energy:     -1992.876709  Gnorm:      0.001307  CPU:  677.276
  Cycle:     59 Energy:     -1992.876711  Gnorm:      0.001307  CPU:  685.540
  Cycle:     60 Energy:     -1992.876711  Gnorm:      0.001306  CPU:  693.808
  Cycle:     61 Energy:     -1992.876711  Gnorm:      0.001306  CPU:  702.100
  Cycle:     62 Energy:     -1992.876711  Gnorm:      0.001306  CPU:  710.384
  ** Hessian calculated **
  Cycle:     63 Energy:     -1992.876711  Gnorm:      0.001306  CPU:  733.364
  ** Hessian calculated **

  XYZ File written as gulp.xyz                                



  **** Conditions for a minimum have not been satisfied. However ****
  **** no lower point can be found - treat results with caution  ****
  **** unless gradient norm is small (less than 0.1)             ****


  Final energy =   -1992.87671128 eV
  Final Gnorm  =       0.00130641

  Components of energy : 

--------------------------------------------------------------------------------
  Interatomic potentials     =        -306.84165385 eV
  Three-body potentials      =          30.10746331 eV
  Four-body potentials       =          13.19619757 eV
  Out of plane potentials    =           0.00000000 eV
  Bond-order potentials      =       -1729.11419558 eV
  Monopole - monopole (real) =           7.67052303 eV
  Monopole - monopole (recip)=           0.00000000 eV
  Monopole - monopole (total)=           7.67052303 eV
  Wolf sum self energy       =          -7.89504576 eV
--------------------------------------------------------------------------------
  Total lattice energy       =       -1992.87671128 eV
--------------------------------------------------------------------------------
  Total lattice energy       =         -192282.1387 kJ/(mole unit cells)
--------------------------------------------------------------------------------

  Final fractional coordinates of atoms :

--------------------------------------------------------------------------------
   No.  Atomic        x           y          z          Radius
        Label       (Frac)      (Frac)     (Frac)       (Angs) 
--------------------------------------------------------------------------------
     1  C1    c     1.001772    0.210535    0.686263    0.000000
     2  C1    c     1.020833    0.115523    0.689090    0.000000
     3  C1    c     0.956465    0.064998    0.660443    0.000000
     4  C1    c     0.876044    0.113121    0.626170    0.000000
     5  C1    c     0.853325    0.211783    0.626083    0.000000
     6  C1    c     0.912024    0.258222    0.656784    0.000000
     7  C1    c     0.859234    0.324406    0.703941    0.000000
     8  C1    c     0.908416    0.314663    0.764616    0.000000
     9  C1    c     0.999342    0.248768    0.755374    0.000000
    10  C1    c     1.025163    0.197501    0.820660    0.000000
    11  C1    c     1.042478    0.099705    0.822380    0.000000
    12  C1    c     1.033223    0.063474    0.761280    0.000000
    13  C1    c     0.983252   -0.016927    0.772425    0.000000
    14  C1    c     0.938760   -0.018588    0.710816    0.000000
    15  C1    c     0.850098   -0.059313    0.723718    0.000000
    16  C1    c     0.769130   -0.007579    0.688727    0.000000
    17  C1    c     0.780884    0.074657    0.642879    0.000000
    18  C1    c     0.702836    0.150239    0.654884    0.000000
    19  C1    c     0.744554    0.234175    0.644200    0.000000
    20  C1    c     0.694714    0.306947    0.680540    0.000000
    21  C1    c     0.755500    0.352617    0.713709    0.000000
    22  C1    c     0.701648    0.368326    0.785918    0.000000
    23  C1    c     0.749440    0.367710    0.844345    0.000000
    24  C1    c     0.856141    0.336788    0.832268    0.000000
    25  C1    c     0.885163    0.288088    0.897968    0.000000
    26  C1    c     0.966009    0.216576    0.892449    0.000000
    27  C1    c     0.949056    0.130230    0.935819    0.000000
    28  C1    c     0.995219    0.058940    0.892787    0.000000
    29  C1    c     0.951247   -0.020516    0.902194    0.000000
    30  C1    c     0.949972   -0.063691    0.841134    0.000000
    31  C1    c     0.861123   -0.109936    0.855716    0.000000
    32  C1    c     0.810019   -0.102389    0.796484    0.000000
    33  C1    c     0.701835   -0.072933    0.809710    0.000000
    34  C1    c     0.683073   -0.011261    0.745533    0.000000
    35  C1    c     0.601767    0.058273    0.748841    0.000000
    36  C1    c     0.610852    0.140809    0.700631    0.000000
    37  C1    c     0.563416    0.212452    0.741908    0.000000
    38  C1    c     0.602726    0.293790    0.732623    0.000000
    39  C1    c     0.609296    0.329253    0.797776    0.000000
    40  C1    c     0.566081    0.293680    0.866844    0.000000
    41  C1    c     0.611685    0.296647    0.930050    0.000000
    42  C1    c     0.704247    0.332989    0.918684    0.000000
    43  C1    c     0.790370    0.280627    0.949333    0.000000
    44  C1    c     0.778288    0.193985    0.987305    0.000000
    45  C1    c     0.858931    0.119452    0.984972    0.000000
    46  C1    c     0.813993    0.036141    0.995285    0.000000
    47  C1    c     0.860375   -0.034541    0.954808    0.000000
    48  C1    c     0.802486   -0.090730    0.927957    0.000000
    49  C1    c     0.695382   -0.066794    0.938969    0.000000
    50  C1    c     0.642424   -0.060736    0.878004    0.000000
    51  C1    c     0.561625    0.016204    0.881355    0.000000
    52  C1    c     0.540868    0.071739    0.817878    0.000000
    53  C1    c     0.526605    0.169313    0.814341    0.000000
    54  C1    c     0.522607    0.210961    0.875143    0.000000
    55  C1    c     0.540081    0.155936    0.942502    0.000000
    56  C1    c     0.567425    0.062175    0.941920    0.000000
    57  C1    c     0.648464    0.010466    0.976904    0.000000
    58  C1    c     0.705527    0.059417    1.005727    0.000000
    59  C1    c     0.683709    0.157050    0.998981    0.000000
    60  C1    c     0.598595    0.207211    0.973229    0.000000
    61  C1    c     0.608437    0.632489    0.766146    0.000000
    62  C1    c     0.588896    0.723308    0.779740    0.000000
    63  C1    c     0.491160    0.760228    0.822736    0.000000
    64  C1    c     0.414071    0.704900    0.846784    0.000000
    65  C1    c     0.430536    0.612714    0.833249    0.000000
    66  C1    c     0.522090    0.580171    0.791900    0.000000
    67  C1    c     0.516146    0.532701    0.733568    0.000000
    68  C1    c     0.596057    0.549255    0.673498    0.000000
    69  C1    c     0.653796    0.612763    0.690691    0.000000
    70  C1    c     0.685784    0.679795    0.633010    0.000000
    71  C1    c     0.665829    0.773304    0.647529    0.000000
    72  C1    c     0.610151    0.790464    0.715434    0.000000
    73  C1    c     0.526485    0.862856    0.722852    0.000000
    74  C1    c     0.456770    0.853021    0.790053    0.000000
    75  C1    c     0.355252    0.892581    0.790321    0.000000
    76  C1    c     0.280709    0.830086    0.812988    0.000000
    77  C1    c     0.310065    0.738986    0.840333    0.000000
    78  C1    c     0.256363    0.667631    0.831997    0.000000
    79  C1    c     0.334564    0.589912    0.823468    0.000000
    80  C1    c     0.336185    0.536137    0.769874    0.000000
    81  C1    c     0.428373    0.501465    0.726766    0.000000
    82  C1    c     0.411974    0.492772    0.655513    0.000000
    83  C1    c     0.486923    0.518788    0.597268    0.000000
    84  C1    c     0.585075    0.540048    0.603426    0.000000
    85  C1    c     0.621455    0.608201    0.543236    0.000000
    86  C1    c     0.669792    0.678010    0.558487    0.000000
    87  C1    c     0.640205    0.773869    0.528696    0.000000
    88  C1    c     0.641660    0.833266    0.582575    0.000000
    89  C1    c     0.560567    0.902731    0.593991    0.000000
    90  C1    c     0.503882    0.925211    0.663025    0.000000
    91  C1    c     0.401535    0.971314    0.663984    0.000000
    92  C1    c     0.326791    0.951915    0.725295    0.000000
    93  C1    c     0.237671    0.921593    0.710264    0.000000
    94  C1    c     0.206543    0.849774    0.767023    0.000000
    95  C1    c     0.154532    0.782416    0.753924    0.000000
    96  C1    c     0.184037    0.689194    0.786143    0.000000
    97  C1    c     0.196633    0.637913    0.726754    0.000000
    98  C1    c     0.266444    0.559559    0.720754    0.000000
    99  C1    c     0.304747    0.527125    0.651478    0.000000
   100  C1    c     0.274953    0.582950    0.589235    0.000000
   101  C1    c     0.354892    0.609729    0.530966    0.000000
   102  C1    c     0.456208    0.581194    0.536694    0.000000
   103  C1    c     0.537741    0.632410    0.502509    0.000000
   104  C1    c     0.508312    0.722474    0.474638    0.000000
   105  C1    c     0.559583    0.792256    0.489555    0.000000
   106  C1    c     0.475821    0.861399    0.504850    0.000000
   107  C1    c     0.474334    0.911746    0.559505    0.000000
   108  C1    c     0.382656    0.960385    0.593169    0.000000
   109  C1    c     0.290214    0.947991    0.577449    0.000000
   110  C1    c     0.216311    0.923565    0.640358    0.000000
   111  C1    c     0.163884    0.854728    0.623924    0.000000
   112  C1    c     0.136281    0.784058    0.680006    0.000000
   113  C1    c     0.160839    0.690932    0.664314    0.000000
   114  C1    c     0.198793    0.665764    0.595043    0.000000
   115  C1    c     0.227079    0.740553    0.537939    0.000000
   116  C1    c     0.207324    0.833443    0.549993    0.000000
   117  C1    c     0.287559    0.892165    0.521904    0.000000
   118  C1    c     0.381493    0.851330    0.487091    0.000000
   119  C1    c     0.403362    0.756747    0.475651    0.000000
   120  C1    c     0.326917    0.702053    0.502467    0.000000
   121  C1    c    -0.012525    0.774949    0.304387    0.000000
   122  C1    c    -0.031755    0.869953    0.301543    0.000000
   123  C1    c     0.032529    0.920575    0.330165    0.000000
   124  C1    c     0.112981    0.872614    0.364462    0.000000
   125  C1    c     0.135879    0.773968    0.364562    0.000000
   126  C1    c     0.077294    0.727407    0.333868    0.000000
   127  C1    c     0.130283    0.661358    0.286666    0.000000
   128  C1    c     0.081180    0.670985    0.225984    0.000000
   129  C1    c    -0.009864    0.736738    0.235223    0.000000
   130  C1    c    -0.035771    0.787901    0.169937    0.000000
   131  C1    c    -0.053352    0.885681    0.168222    0.000000
   132  C1    c    -0.044234    0.921956    0.229340    0.000000
   133  C1    c     0.005675    1.002383    0.218181    0.000000
   134  C1    c     0.050128    1.004136    0.279771    0.000000
   135  C1    c     0.138638    1.045046    0.266890    0.000000
   136  C1    c     0.219640    0.993529    0.301933    0.000000
   137  C1    c     0.208025    0.911274    0.347779    0.000000
   138  C1    c     0.286202    0.835799    0.335772    0.000000
   139  C1    c     0.244669    0.751783    0.346429    0.000000
   140  C1    c     0.294690    0.679076    0.310088    0.000000
   141  C1    c     0.234034    0.633337    0.276891    0.000000
   142  C1    c     0.287945    0.617656    0.204705    0.000000
   143  C1    c     0.240235    0.618089    0.146279    0.000000
   144  C1    c     0.133505    0.648867    0.158348    0.000000
   145  C1    c     0.104423    0.697488    0.092652    0.000000
   146  C1    c     0.023436    0.768865    0.098154    0.000000
   147  C1    c     0.040191    0.855233    0.054750    0.000000
   148  C1    c    -0.006121    0.926472    0.097808    0.000000
   149  C1    c     0.037752    1.005974    0.088435    0.000000
   150  C1    c     0.038910    1.049172    0.149487    0.000000
   151  C1    c     0.127591    1.095626    0.134926    0.000000
   152  C1    c     0.178635    1.088241    0.194161    0.000000
   153  C1    c     0.286877    1.059050    0.180947    0.000000
   154  C1    c     0.305691    0.997384    0.245128    0.000000
   155  C1    c     0.387051    0.927902    0.241794    0.000000
   156  C1    c     0.378134    0.845370    0.290008    0.000000
   157  C1    c     0.425787    0.773774    0.248754    0.000000
   158  C1    c     0.386704    0.692318    0.258048    0.000000
   159  C1    c     0.380236    0.656815    0.192887    0.000000
   160  C1    c     0.423342    0.692495    0.123825    0.000000
   161  C1    c     0.377826    0.689396    0.060606    0.000000
   162  C1    c     0.285406    0.652843    0.071940    0.000000
   163  C1    c     0.199213    0.705099    0.041312    0.000000
   164  C1    c     0.211121    0.791755    0.003322    0.000000
   165  C1    c     0.130319    0.866152    0.005621    0.000000
   166  C1    c     0.175111    0.949547   -0.004667    0.000000
   167  C1    c     0.128596    1.020153    0.035844    0.000000
   168  C1    c     0.186296    1.076501    0.062689    0.000000
   169  C1    c     0.293419    1.052787    0.051676    0.000000
   170  C1    c     0.346331    1.046904    0.112646    0.000000
   171  C1    c     0.427234    0.970031    0.109305    0.000000
   172  C1    c     0.448062    0.914531    0.172779    0.000000
   173  C1    c     0.462548    0.816966    0.176331    0.000000
   174  C1    c     0.466610    0.775301    0.115532    0.000000
   175  C1    c     0.449051    0.830267    0.048183    0.000000
   176  C1    c     0.421534    0.924002    0.048759    0.000000
   177  C1    c     0.340483    0.975563    0.013740    0.000000
   178  C1    c     0.283590    0.926473   -0.015105    0.000000
   179  C1    c     0.305604    0.828854   -0.008384    0.000000
   180  C1    c     0.390752    0.778848    0.017408    0.000000
   181  C1    c     0.380751    0.353455    0.224447    0.000000
   182  C1    c     0.400203    0.262617    0.210894    0.000000
   183  C1    c     0.497901    0.225601    0.167895    0.000000
   184  C1    c     0.575063    0.280850    0.143864    0.000000
   185  C1    c     0.558706    0.373030    0.157373    0.000000
   186  C1    c     0.467174    0.405706    0.198672    0.000000
   187  C1    c     0.473226    0.453201    0.256970    0.000000
   188  C1    c     0.393341    0.436703    0.317074    0.000000
   189  C1    c     0.335524    0.373242    0.299908    0.000000
   190  C1    c     0.303544    0.306248    0.357608    0.000000
   191  C1    c     0.323353    0.212730    0.343123    0.000000
   192  C1    c     0.378953    0.195499    0.275220    0.000000
   193  C1    c     0.462538    0.123050    0.267819    0.000000
   194  C1    c     0.532231    0.132804    0.200602    0.000000
   195  C1    c     0.633722    0.093140    0.200311    0.000000
   196  C1    c     0.708326    0.155573    0.177641    0.000000
   197  C1    c     0.679053    0.246686    0.150299    0.000000
   198  C1    c     0.732922    0.317980    0.158551    0.000000
   199  C1    c     0.654744    0.395707    0.167127    0.000000
   200  C1    c     0.653225    0.449489    0.220692    0.000000
   201  C1    c     0.561075    0.484317    0.263757    0.000000
   202  C1    c     0.577555    0.492979    0.334998    0.000000
   203  C1    c     0.502590    0.467074    0.393268    0.000000
   204  C1    c     0.404376    0.445923    0.387134    0.000000
   205  C1    c     0.367950    0.377826    0.447354    0.000000
[...]
   911     1473.9256                  0.00007124562376
   912     1476.0959                  0.00011102678577
   913     1476.7060                  0.00016255399884
   914     1477.7425                  0.00014246123786
   915     1479.2562                  0.00010368930045
   916     1479.9256                  0.00028056509503
   917     1480.0304                  0.00026040267819
   918     1481.2847                  0.00022550393378
   919     1481.4071                  0.00021376090512
   920     1484.4480                  0.00005031645456
   921     1484.8020                  0.00005528548648
   922     1486.3385                  0.00005879708648
   923     1486.6931                  0.00005188677318
   924     1491.4801                  0.00001011789435
   925     1492.5388                  0.00027267659345
   926     1493.0737                  0.00031145077799
   927     1494.2210                  0.00077159958372
   928     1494.3245                  0.00066229908308
   929     1495.3459                  0.00013123754224
   930     1496.2717                  0.00006103209940
   931     1499.3815                  0.00009537961176
   932     1499.7320                  0.00008863015390
   933     1500.9421                  0.00009824385814
   934     1501.2989                  0.00010419890075
   935     1502.6260                  0.00003548868076
   936     1503.0316                  0.00005557706742
   937     1504.1575                  0.00006502357286
   938     1505.2784                  0.00003761680246
   939     1506.9552                  0.00044538340825
   940     1507.0940                  0.00059383319342
   941     1507.3561                  0.00036610264209
   942     1507.5873                  0.00043204787016
   943     1509.1157                  0.00008921187489
   944     1510.0725                  0.00004404360321
   945     1512.0096                  0.00012913092933
   946     1512.2383                  0.00080994146702
   947     1512.6391                  0.00076418802274
   948     1513.2344                  0.00010692170315
   949     1516.0503                  0.00000653642742
   950     1517.1040                  0.00034109688125
   951     1517.2527                  0.00033912268520
   952     1520.0288                  0.00050228213366
   953     1520.3145                  0.00055525223723
   954     1520.6163                  0.00018834518711
   955     1521.1569                  0.00008150072184
   956     1524.8402                  0.00015319267492
   957     1525.6704                  0.00082352125258
   958     1525.9733                  0.00140015209074
   959     1526.1227                  0.00074728654062
   960     1527.8972                  0.00029670735923
   961     1528.2175                  0.00026918371382
   962     1529.3439                  0.00005500243581
   963     1530.1495                  0.00010671409152
   964     1530.4650                  0.00014347187751
   965     1530.8285                  0.00007512536235
   966     1532.0175                  0.00026585324739
   967     1532.5806                  0.00031386412544
   968     1534.4450                  0.00007598446439
   969     1536.0919                  0.00009277705857
   970     1537.3245                  0.00019640129883
   971     1537.9976                  0.00008949959931
   972     1540.1039                  0.00004159802489
   973     1540.6713                  0.00004625767692
   974     1541.8668                  0.00040418691953
   975     1541.9693                  0.00044568432654
   976     1542.3129                  0.00020933273100
   977     1542.9053                  0.00004317347984
   978     1544.5790                  0.00007413599296
   979     1544.9826                  0.00009121918724
   980     1546.3778                  0.00003685204486
   981     1548.3044                  0.00003779060312
   982     1550.2598                  0.00002983480421
   983     1553.6485                  0.00002123953540
   984     1554.2959                  0.00002230547474
   985     1556.4206                  0.00026226105811
   986     1556.4877                  0.00025571278800
   987     1559.2883                  0.00009113144390
   988     1559.9118                  0.00014913359915
   989     1560.5529                  0.00016085247020
   990     1561.0744                  0.00012059824990
   991     1563.8911                  0.00001417571819
   992     1566.2860                  0.00000187297552
   993     1569.6262                  0.00005016214316
   994     1571.1703                  0.00006279262527
   995     1573.5253                  0.00011871173276
   996     1573.7762                  0.00012435438101
   997     1576.2044                  0.00028459033667
   998     1576.3010                  0.00028170774915
   999     1579.5253                  0.00045094359318
  1000     1579.8841                  0.00045073878839
  1001     1583.3744                  0.00003381491050
  1002     1585.0099                  0.00003398220720
  1003     1585.6681                  0.00001191247757
  1004     1587.5873                  0.00015819069959
  1005     1588.1005                  0.00015602334578
  1006     1589.5961                  0.00001628037163
  1007     1593.5451                  0.00008217504799
  1008     1593.8467                  0.00011544344900
  1009     1594.5366                  0.00009311336016
  1010     1595.0737                  0.00005498279176
  1011     1602.0472                  0.00001106293196
  1012     1602.5394                  0.00001414368599
  1013     1605.0451                  0.00005424143371
  1014     1605.4830                  0.00004660703510
  1015     1607.4657                  0.00003210308011
  1016     1609.2327                  0.00002367915760
  1017     1616.3844                  0.00004162890656
  1018     1617.0050                  0.00007881957532
  1019     1618.0416                  0.00009162001005
  1020     1618.9363                  0.00005485111801
  1021     1624.6746                  0.00004016669027
  1022     1627.4038                  0.00013149966874
  1023     1627.7783                  0.00009148404787
  1024     1630.7247                  0.00027526925740
  1025     1630.9945                  0.00029006249902
  1026     1631.6062                  0.00004960779885
  1027     1632.6229                  0.00002640313184
  1028     1635.9628                  0.00000000000000
  1029     1640.2324                  0.00000139502424
  1030     1642.6270                  0.00002187587916
  1031     1644.0340                  0.00002353631612
  1032     1644.4461                  0.00002552839814
  1033     1645.3702                  0.00003639312083
  1034     1646.3888                  0.00003467407905
  1035     1647.6748                  0.00002536001523
  1036     1650.5704                  0.00000827362197
  1037     1651.9682                  0.00001980708839
  1038     1652.9226                  0.00001814372152
  1039     1659.1674                  0.00000235214066
  1040     1661.2684                  0.00000607849464
  1041     1662.2255                  0.00001774771476
  1042     1664.2181                  0.00001546220127
  1043     1672.3420                  0.00014421739287
  1044     1674.0025                  0.00002897058993
  1045     1674.4154                  0.00014311774971
  1046     1675.2499                  0.00000832420101
  1047     1688.1094                  0.00002678721071
  1048     1689.1040                  0.00002675567551
  1049     1696.8941                  0.00000000000000
  1050     1703.5999                  0.00001053482524
  1051     1705.3728                  0.00001165683707
  1052     1706.8813                  0.00001353449888
  1053     1707.2166                  0.00002855972184
  1054     1707.9840                  0.00001443277073
  1055     1708.1111                  0.00003503469249
  1056     1708.8639                  0.00001515388693
  1057     1709.4054                  0.00000280837710
  1058     1709.6892                  0.00000696400758
  1059     1712.4851                  0.00003185841150
  1060     1714.8254                  0.00005269101282
  1061     1716.4262                  0.00002312353823
  1062     1717.6737                  0.00000229609545
  1063     2908.7120                  0.00000000022099
  1064     2908.8129                  0.00000000022097
  1065     2938.5252                  0.00000000009177
  1066     2938.8235                  0.00000000009015
  1067     2941.3377                  0.00000000020580
  1068     2941.3764                  0.00000000098276
  1069     2944.4049                  0.00000001728775
  1070     2944.5908                  0.00000003251048
  1071     2945.2340                  0.00000003920445
  1072     2945.5244                  0.00000002190349
  1073     2949.0724                  0.00000000028824
  1074     2949.1819                  0.00000000043776
  1075     2949.9152                  0.00000000069844
  1076     2950.0828                  0.00000000060921
  1077     3003.1961                  0.00000000133360
  1078     3003.7307                  0.00000000235036
  1079     3004.5221                  0.00000000213348
  1080     3004.6216                  0.00000000171212
  1081     3010.7638                  0.00000000128423
  1082     3010.9557                  0.00000000133911
  1083     3011.5641                  0.00000000504153
  1084     3011.7555                  0.00000000497128
  1085     3037.5507                  0.00000000186715
  1086     3037.5923                  0.00000000186710
  1087     3045.4205                  0.00000000089268
  1088     3045.7087                  0.00000000089251
  1089     3048.7653                  0.00000000016413
  1090     3048.8429                  0.00000000016413
  1091     3060.5520                  0.00000000184267
  1092     3060.5546                  0.00000000184267
  1093     3065.1877                  0.00000000142302
  1094     3065.2783                  0.00000000142294
  1095     3069.7703                  0.00000000000043
  1096     3072.1507                  0.00000000207295
  1097     3073.7630                  0.00000043312129
  1098     3073.9285                  0.00000043447182
  1099     3075.3788                  0.00000534919669
  1100     3075.6749                  0.00000534705865
  1101     3083.2713                  0.00000000000000
  1102     3105.7438                  0.00000001194316
  1103     3106.0205                  0.00000001194103
  1104     3121.1560                  0.00000000000000
  1105     3134.0287                  0.00000000000000
  1106     3137.3083                  0.00000000000000
  1107     3148.3886                  0.00000000025594
  1108     3149.2513                  0.00000000025580
  1109     3153.0179                  0.00000000043840
  1110     3153.6799                  0.00000000043822
  1111     3159.8477                  0.00000002443002
  1112     3161.7819                  0.00000002440014
  1113     3166.7440                  0.00000005648827
  1114     3169.2040                  0.00000005640061
  1115     3202.9412                  0.00000005856971
  1116     3203.6884                  0.00000005854239
  1117     3215.9127                  0.00000041770738
  1118     3217.8997                  0.00000041790428
  1119     3219.6759                  0.00000058266125
  1120     3220.4021                  0.00000059571486
  1121     3221.7971                  0.00000016089166
  1122     3222.7355                  0.00000014813857
  1123     3238.2579                  0.00000000000940
  1124     3240.9165                  0.00000000000938
  1125     3248.1333                  0.00000122042982
  1126     3248.9074                  0.00000121984833
  1127     3291.5833                  0.00000000079526
  1128     3292.7543                  0.00000000079470
--------------------------------------------------------------------------------
  Thermal conductivity =     0.551776 W/(m.K) 
--------------------------------------------------------------------------------

--------------------------------------------------------------------------------
  Phonon properties (per mole of unit cells): Temperature = 100000.000 K
--------------------------------------------------------------------------------
  Zero point energy            =       74.156840 eV
  Entropy                      =        0.523400 eV/K
                               =    50500.101247 J/(mol.K)
  Helmholtz free-energy        =   -44638.117392 eV
                               = -4306895.595435 kJmol-1
  Free energy (equipartition)  =   -44638.248891 eV
  - T*S       (equipartition)  =   -52339.875309 eV
  Uvib        (equipartition)  =     9694.503130 eV
  Mean kinetic energy          =     4860.309069 eV
  Heat capacity - const volume =        0.096942 eV/K
                               =     9353.459019 J/(mol.K)
--------------------------------------------------------------------------------

  Phonon density of states : 

  Broadening factor =     0.1000

--------------------------------------------------------------------------------
 Frequency (cm-1) Density of States                                             
--------------------------------------------------------------------------------
    0.00000 |******                                                        0.004
   52.31688 |****************                                              0.012
  104.63375 |****************                                              0.012
  156.95063 |*****************                                             0.013
  209.26750 |**********************                                        0.016
  261.58438 |**************************                                    0.019
  313.90126 |*********************************                             0.025
  366.21813 |*********************************************                 0.033
  418.53501 |*******************************************                   0.032
  470.85188 |***************************************                       0.029
  523.16876 |******************************************                    0.031
  575.48563 |****************************************                      0.030
  627.80251 |***********************************************               0.035
  680.11939 |*********************************************                 0.033
  732.43626 |******************************************                    0.031
  784.75314 |**************************************************            0.036
  837.07001 |************************************                          0.027
  889.38689 |*******************************************                   0.032
  941.70377 |********************************************************      0.041
  994.02064 |**************************************                        0.028
 1046.33752 |******************************************                    0.031
 1098.65439 |*********************************************                 0.033
 1150.97127 |********************************************                  0.032
 1203.28815 |*******************************************                   0.032
 1255.60502 |****************************                                  0.021
 1307.92190 |******************************************                    0.031
 1360.23877 |*****************************************                     0.030
 1412.55565 |************************************************************  0.044
 1464.87252 |**********************************************************    0.043
 1517.18940 |*********************************************************     0.042
 1569.50628 |***************************************                       0.029
 1621.82315 |******************************                                0.023
 1674.14003 |*********************                                         0.016
 1726.45690 |*************                                                 0.010
 1778.77378 |**                                                            0.002
 1831.09066 |*                                                             0.001
 1883.40753 |                                                              0.001
 1935.72441 |                                                              0.000
 1988.04128 |                                                              0.000
 2040.35816 |                                                              0.000
 2092.67504 |                                                              0.000
 2144.99191 |                                                              0.000
 2197.30879 |                                                              0.000
 2249.62566 |                                                              0.000
 2301.94254 |                                                              0.000
 2354.25941 |                                                              0.000
 2406.57629 |                                                              0.000
 2458.89317 |                                                              0.000
 2511.21004 |                                                              0.000
 2563.52692 |                                                              0.000
 2615.84379 |                                                              0.000
 2668.16067 |                                                              0.000
 2720.47755 |                                                              0.000
 2772.79442 |                                                              0.000
 2825.11130 |                                                              0.000
 2877.42817 |*                                                             0.001
 2929.74505 |************                                                  0.009
 2982.06193 |*******                                                       0.006
 3034.37880 |*************                                                 0.010
 3086.69568 |************                                                  0.009
 3139.01255 |***********                                                   0.008
 3191.32943 |*******                                                       0.006
 3243.64630 |********                                                      0.007
 3295.96318 |***                                                           0.002
--------------------------------------------------------------------------------



  Time to end of optimisation =     817.8560 seconds


  Peak dynamic memory used =      27.34 MB 


  Timing analysis for GULP :

--------------------------------------------------------------------------------
  Task / Subroutine                                          Time (Seconds)
--------------------------------------------------------------------------------
  Calculation of real space energy and derivatives              706.1360
  Calculation of three-body energy and derivatives                7.9720
  Calculation of four-body energy and derivatives                 3.7360
  Calculation of Bond Order energy and derivatives                8.7360
  Calculation of molecules and connectivity                       3.2080
  Calculation of phonons                                         54.8600
  Calculation of scattering                                       0.0000
  Calculation of matrix inversion                                31.8440
--------------------------------------------------------------------------------
  Total CPU time                                                817.8560
--------------------------------------------------------------------------------


  LAMMPS file written on channel 26


  Job Finished at 23:21.39 14th July       2013                               

