  LAMMPS description
 
      60   atoms
       0   bonds
       0   angles
       0   dihedrals
 
       1   atom types
       0   bond types
       0   angle types
       0   dihedral types
 
       0  100.000000     xlo xhi
       0  100.000000     ylo yhi
       0  100.000000     zlo zhi
  0.0000000      0.0000000      0.0000000     xy xz yz

  Masses

       1   12.010000

   Atoms

       1       1       1    0.000000   50.993000   53.067000   57.215000
       2       1       1    0.000000   50.676986   52.203536   56.080701
       3       1       1    0.000000   49.629108   51.137636   56.217926
       4       1       1    0.000000   48.925760   50.964205   57.485717
       5       1       1    0.000000   49.250614   51.851824   58.651747
       6       1       1    0.000000   50.269976   52.888718   58.518255
       7       1       1    0.000000   50.039411   54.248505   59.110574
       8       1       1    0.000000   50.619938   55.267181   58.173392
       9       1       1    0.000000   51.209289   54.536971   57.001863
      10       1       1    0.000000   51.103676   55.103476   55.660227
      11       1       1    0.000000   50.778822   54.215858   54.494197
      12       1       1    0.000000   50.568420   52.785888   54.701534
      13       1       1    0.000000   49.453444   52.079902   53.986388
      14       1       1    0.000000   48.872918   51.061226   54.923570
      15       1       1    0.000000   47.433956   50.813465   54.932226
      16       1       1    0.000000   46.710933   50.635183   56.235481
      17       1       1    0.000000   47.446546   50.709514   57.494616
      18       1       1    0.000000   46.857195   51.439724   58.666145
      19       1       1    0.000000   47.972171   52.145710   59.381291
      20       1       1    0.000000   47.747880   53.468494   59.957492
      21       1       1    0.000000   48.795758   54.534394   59.820266
      22       1       1    0.000000   48.097841   55.846957   59.612629
      23       1       1    0.000000   48.662570   56.837912   58.700950
      24       1       1    0.000000   49.941013   56.544026   57.971405
      25       1       1    0.000000   49.832447   57.126378   56.592239
      26       1       1    0.000000   50.405760   56.416039   55.452590
      27       1       1    0.000000   49.649569   56.339629   54.158233
      28       1       1    0.000000   49.880134   54.979842   53.565914
      29       1       1    0.000000   48.795500   54.293068   52.870228
      30       1       1    0.000000   48.579212   52.823097   53.083365
      31       1       1    0.000000   47.099998   52.568405   53.092264
      32       1       1    0.000000   46.535268   51.577449   54.003943
      33       1       1    0.000000   45.256825   51.871336   54.733487
      34       1       1    0.000000   45.365392   51.288983   56.112654
      35       1       1    0.000000   44.792079   51.999323   57.252304
      36       1       1    0.000000   45.548269   52.075733   58.546660
      37       1       1    0.000000   45.317704   53.435519   59.138979
      38       1       1    0.000000   46.402339   54.122294   59.834665
      39       1       1    0.000000   46.618627   55.592265   59.621528
      40       1       1    0.000000   45.744394   56.335460   58.718505
      41       1       1    0.000000   46.324921   57.354136   57.781323
      42       1       1    0.000000   47.763882   57.601897   57.772667
      43       1       1    0.000000   48.486906   57.780179   56.469412
      44       1       1    0.000000   47.751293   57.705848   55.210277
      45       1       1    0.000000   48.340643   56.975638   54.038748
      46       1       1    0.000000   47.225668   56.269652   53.323602
      47       1       1    0.000000   47.449959   54.946868   52.747401
      48       1       1    0.000000   46.402081   53.880968   52.884626
      49       1       1    0.000000   45.158427   54.166857   53.594318
      50       1       1    0.000000   44.577900   53.148181   54.531500
      51       1       1    0.000000   43.988550   53.878391   55.703030
      52       1       1    0.000000   44.094162   53.311886   57.044666
      53       1       1    0.000000   44.419016   54.199504   58.210696
      54       1       1    0.000000   44.629419   55.629474   58.003359
      55       1       1    0.000000   44.520852   56.211826   56.624192
      56       1       1    0.000000   44.204838   55.348362   55.489893
      57       1       1    0.000000   44.927861   55.526644   54.186638
      58       1       1    0.000000   45.947224   56.563538   54.053146
      59       1       1    0.000000   46.272079   57.451156   55.219176
      60       1       1    0.000000   45.568730   57.277726   56.486967

   Bonds


   Angles


   Dihedrals


