********************************************************************************
*                       GENERAL UTILITY LATTICE PROGRAM                        *
*                                 Julian Gale                                  *
*                      Nanochemistry Research Institute                        *
*                           Department of Chemistry                            *
*                    Curtin University, Western Australia                      *
********************************************************************************
* Version = 4.1.0 * Last modified =  13th June 2013                            *
********************************************************************************
*  optimise     - perform optimisation run                                     *
*  phonon       - calculate phonons for final geometry                         *
********************************************************************************

  Job Started  at 15:34.42 28th June       2013                               

  Number of CPUs =     1


  Total number of configurations input =   1

********************************************************************************
*  Input for Configuration =   1                                               *
********************************************************************************

  Formula = C60                                                         

  Number of irreducible atoms/shells =      60


  Total number atoms/shells =      60

  Dimensionality = 3               :  Bulk   



  Cartesian lattice vectors (Angstroms) :

      100.000000    0.000000    0.000000
        0.000000  100.000000    0.000000
        0.000000    0.000000  100.000000

  Cell parameters (Angstroms/Degrees):

  a =     100.0000    alpha =  90.0000
  b =     100.0000    beta  =  90.0000
  c =     100.0000    gamma =  90.0000

  Initial cell volume =     1000000.000000 Angs**3

  Temperature of configuration =  0.000     K 

  Pressure of configuration =         0.000 GPa 

  Fractional coordinates of asymmetric unit :

--------------------------------------------------------------------------------
   No.  Atomic       x           y          z         Charge      Occupancy
        Label      (Frac)      (Frac)     (Frac)        (e)         (Frac)  
--------------------------------------------------------------------------------
      1 C     c    0.007267    0.989998    0.033005     0.00000    1.000000    
      2 C     c    0.011758 *  0.003820 *  0.033005 *   0.00000    1.000000    
      3 C     c    0.014102 *  0.980590 *  0.025818 *   0.00000    1.000000    
      4 C     c    0.022817 *  0.007414 *  0.025818 *   0.00000    1.000000    
      5 C     c    0.022817 *  0.019776 *  0.018177 *   0.00000    1.000000    
      6 C     c    0.000000 *  0.012363 *  0.033005 *   0.00000    1.000000    
      7 C     c    0.000000 *  0.023991 *  0.025818 *   0.00000    1.000000    
      8 C     c    0.011758 *  0.027812 *  0.018177 *   0.00000    1.000000    
      9 C     c    0.993165 *  0.970589 *  0.018177 *   0.00000    1.000000    
     10 C     c    0.985898 *  0.980590 *  0.025818 *   0.00000    1.000000    
     11 C     c    0.006835 *  0.970589 *  0.018177 *   0.00000    1.000000    
     12 C     c    0.992733 *  0.989998 *  0.033005 *   0.00000    1.000000    
     13 C     c    0.988242 *  0.003820 *  0.033005 *   0.00000    1.000000    
     14 C     c    0.974141 *  0.984411 *  0.018177 *   0.00000    1.000000    
     15 C     c    0.969916 *  0.997412 *  0.018177 *   0.00000    1.000000    
     16 C     c    0.977183 *  0.007414 *  0.025818 *   0.00000    1.000000    
     17 C     c    0.007267 *  0.966007 *  0.994186 *   0.00000    1.000000    
     18 C     c    0.992733 *  0.966007 *  0.994186 *   0.00000    1.000000    
     19 C     c    0.014102 *  0.968228 *  0.005814 *   0.00000    1.000000    
     20 C     c    0.985898 *  0.968228 *  0.005814 *   0.00000    1.000000    
     21 C     c    0.974141 *  0.976770 *  0.005814 *   0.00000    1.000000    
     22 C     c    0.988242 *  0.972188 *  0.981823 *   0.00000    1.000000    
     23 C     c    0.977183 *  0.980224 *  0.981823 *   0.00000    1.000000    
     24 C     c    0.969916 *  0.982585 *  0.994186 *   0.00000    1.000000    
     25 C     c    0.030084 *  0.982585 *  0.994186 *   0.00000    1.000000    
     26 C     c    0.022817 *  0.980224 *  0.981823 *   0.00000    1.000000    
     27 C     c    0.025859 *  0.976770 *  0.005814 *   0.00000    1.000000    
     28 C     c    0.011758 *  0.972188 *  0.981823 *   0.00000    1.000000    
     29 C     c    0.000000 *  0.976009 *  0.974182 *   0.00000    1.000000    
     30 C     c    0.022817 *  0.992586 *  0.974182 *   0.00000    1.000000    
     31 C     c    0.011758 *  0.996180 *  0.966995 *   0.00000    1.000000    
     32 C     c    0.000000 *  0.987637 *  0.966995 *   0.00000    1.000000    
     33 C     c    0.030084 *  0.997412 *  0.018177 *   0.00000    1.000000    
     34 C     c    0.034575 *  0.003594 *  0.005814 *   0.00000    1.000000    
     35 C     c    0.025859 *  0.984411 *  0.018177 *   0.00000    1.000000    
     36 C     c    0.034575 *  0.996406 *  0.994186 *   0.00000    1.000000    
     37 C     c    0.030084 *  0.002588 *  0.981823 *   0.00000    1.000000    
     38 C     c    0.030084 *  0.017415 *  0.005814 *   0.00000    1.000000    
     39 C     c    0.025859 *  0.023230 *  0.994186 *   0.00000    1.000000    
     40 C     c    0.025859 *  0.015589 *  0.981823 *   0.00000    1.000000    
     41 C     c    0.992733 *  0.010002 *  0.966995 *   0.00000    1.000000    
     42 C     c    0.007267 *  0.010002 *  0.966995 *   0.00000    1.000000    
     43 C     c    0.014102 *  0.019410 *  0.974182 *   0.00000    1.000000    
     44 C     c    0.985898 *  0.019410 *  0.974182 *   0.00000    1.000000    
     45 C     c    0.969916 *  0.002588 *  0.981823 *   0.00000    1.000000    
     46 C     c    0.977183 *  0.992586 *  0.974182 *   0.00000    1.000000    
     47 C     c    0.988242 *  0.996180 *  0.966995 *   0.00000    1.000000    
     48 C     c    0.974141 *  0.015589 *  0.981823 *   0.00000    1.000000    
     49 C     c    0.969916 *  0.017415 *  0.005814 *   0.00000    1.000000    
     50 C     c    0.965425 *  0.003594 *  0.005814 *   0.00000    1.000000    
     51 C     c    0.965425 *  0.996406 *  0.994186 *   0.00000    1.000000    
     52 C     c    0.974141 *  0.023230 *  0.994186 *   0.00000    1.000000    
     53 C     c    0.992733 *  0.033993 *  0.005814 *   0.00000    1.000000    
     54 C     c    0.988242 *  0.027812 *  0.018177 *   0.00000    1.000000    
     55 C     c    0.977183 *  0.019776 *  0.018177 *   0.00000    1.000000    
     56 C     c    0.985898 *  0.031772 *  0.994186 *   0.00000    1.000000    
     57 C     c    0.006835 *  0.029411 *  0.981823 *   0.00000    1.000000    
     58 C     c    0.014102 *  0.031772 *  0.994186 *   0.00000    1.000000    
     59 C     c    0.007267 *  0.033993 *  0.005814 *   0.00000    1.000000    
     60 C     c    0.993165 *  0.029411 *  0.981823 *   0.00000    1.000000    
--------------------------------------------------------------------------------


  Brillouin zone sampling points :

--------------------------------------------------------------------------------
  Point number          x          y          z            Weight
--------------------------------------------------------------------------------
        1           0.000000   0.000000   0.000000         1.0000
--------------------------------------------------------------------------------


********************************************************************************
*  General input information                                                   *
********************************************************************************

  Species output for all configurations : 

--------------------------------------------------------------------------------
  Species    Type    Atomic    Atomic    Charge       Radii (Angs)     Library
                     Number     Mass       (e)     Cova   Ionic  VDW   Symbol
--------------------------------------------------------------------------------
    C        Core        6      12.01   0.000000   0.770  0.000  1.530          
--------------------------------------------------------------------------------


  Lattice summation method               =    Ewald          (3-D)
                                         =    Parry          (2-D)
                                         =    Saunders et al (1-D)
  Accuracy factor for lattice sums       =   12.000


  Time limit = Infinity

  Bond-order two-body potentials :

--------------------------------------------------------------------------------
Atom  Types                 A                 B                  Cutoffs(Ang)   
  1     2                 ZetaA             ZetaB                Taper    Max   
--------------------------------------------------------------------------------
C    c C    c          1393.6000000000       346.7000000000     1.8000   2.1000
                          3.487900000          2.211900000    
--------------------------------------------------------------------------------

  Bond-order repulsive :

--------------------------------------------------------------------------------
Atom    Type         Alpha            N             Lambda          M           
 1/2     1/2                                                                    
--------------------------------------------------------------------------------
C    c             0.00000000       0.72751000       2.21190000       3
C    c
--------------------------------------------------------------------------------

  Bond-order attractive :

--------------------------------------------------------------------------------
Atom    Type         Alpha            N             Lambda          M           
 1/2     1/2           C              D                H                        
--------------------------------------------------------------------------------
C    c  Theta       0.00000016       0.72751000       2.21190000       3
C    c          38049.00000000       4.38400000      -0.57058000
--------------------------------------------------------------------------------

********************************************************************************
*  Output for configuration   1                                                *
********************************************************************************


  Components of energy : 

--------------------------------------------------------------------------------
  Interatomic potentials     =           0.00000000 eV
  Bond-order potentials      =        -396.56544384 eV
  Monopole - monopole (real) =           0.00000000 eV
  Monopole - monopole (recip)=           0.00000000 eV
  Monopole - monopole (total)=           0.00000000 eV
--------------------------------------------------------------------------------
  Total lattice energy       =        -396.56544384 eV
--------------------------------------------------------------------------------
  Total lattice energy       =          -38262.5033 kJ/(mole unit cells)
--------------------------------------------------------------------------------


  Number of variables =      177

  Maximum number of calculations  =          1000
  Maximum Hessian update interval =            10
  Maximum step size               =   1.000000000
  Maximum parameter tolerance     =   0.000010000
  Maximum function  tolerance     =   0.000010000
  Maximum gradient  tolerance     =   0.001000000
  Maximum gradient  component     =   0.010000000

  Symmetry not applied to optimisation

  Newton-Raphson optimiser to be used

  BFGS hessian update to be used

  Start of bulk optimisation :

  Cycle:      0 Energy:      -396.565444  Gnorm:     13.031789  CPU:    0.020
  ** Hessian calculated **
  Cycle:      1 Energy:      -404.904759  Gnorm:      1.423594  CPU:    0.036
  Cycle:      2 Energy:      -404.943241  Gnorm:      0.184490  CPU:    0.040
  Cycle:      3 Energy:      -404.944322  Gnorm:      0.017877  CPU:    0.044
  Cycle:      4 Energy:      -404.944333  Gnorm:      0.001780  CPU:    0.048
  Cycle:      5 Energy:      -404.944333  Gnorm:      0.000308  CPU:    0.052

  XYZ File written as gulp.xyz                                



  **** Optimisation achieved ****


  Final energy =    -404.94433315 eV
  Final Gnorm  =       0.00004547

  Components of energy : 

--------------------------------------------------------------------------------
  Interatomic potentials     =           0.00000000 eV
  Bond-order potentials      =        -404.94433315 eV
  Monopole - monopole (real) =           0.00000000 eV
  Monopole - monopole (recip)=           0.00000000 eV
  Monopole - monopole (total)=           0.00000000 eV
--------------------------------------------------------------------------------
  Total lattice energy       =        -404.94433315 eV
--------------------------------------------------------------------------------
  Total lattice energy       =          -39070.9380 kJ/(mole unit cells)
--------------------------------------------------------------------------------

  Final fractional coordinates of atoms :

--------------------------------------------------------------------------------
   No.  Atomic        x           y          z          Radius
        Label       (Frac)      (Frac)     (Frac)       (Angs) 
--------------------------------------------------------------------------------
     1  C     c     0.007267    0.989998    0.033005    0.000000
     2  C     c     0.011905    0.004274    0.033005    0.000000
     3  C     c     0.014568    0.979950    0.025328    0.000000
     4  C     c     0.023718    0.008112    0.025328    0.000000
     5  C     c     0.023718    0.020880    0.017437    0.000000
     6  C     c     0.999761    0.013097    0.033004    0.000000
     7  C     c     0.999762    0.025517    0.025328    0.000000
     8  C     c     0.011905    0.029463    0.017437    0.000000
     9  C     c     0.992461    0.969620    0.017437    0.000000
    10  C     c     0.984956    0.979950    0.025328    0.000000
    11  C     c     0.007063    0.969620    0.017437    0.000000
    12  C     c     0.992256    0.989998    0.033004    0.000000
    13  C     c     0.987618    0.004274    0.033004    0.000000
    14  C     c     0.972813    0.983895    0.017436    0.000000
    15  C     c     0.968300    0.997782    0.017436    0.000000
    16  C     c     0.975805    0.008112    0.025327    0.000000
    17  C     c     0.007267    0.964809    0.992248    0.000000
    18  C     c     0.992257    0.964809    0.992248    0.000000
    19  C     c     0.014568    0.967181    0.004669    0.000000
    20  C     c     0.984956    0.967181    0.004668    0.000000
    21  C     c     0.972813    0.976004    0.004668    0.000000
    22  C     c     0.987619    0.971193    0.979479    0.000000
    23  C     c     0.975806    0.979776    0.979479    0.000000
    24  C     c     0.968301    0.982214    0.992247    0.000000
    25  C     c     0.031224    0.982214    0.992248    0.000000
    26  C     c     0.023719    0.979776    0.979480    0.000000
    27  C     c     0.026711    0.976004    0.004669    0.000000
    28  C     c     0.011906    0.971193    0.979479    0.000000
    29  C     c     0.999763    0.975139    0.971588    0.000000
    30  C     c     0.023719    0.992544    0.971588    0.000000
    31  C     c     0.011906    0.996382    0.963912    0.000000
    32  C     c     0.999763    0.987559    0.963911    0.000000
    33  C     c     0.031223    0.997782    0.017437    0.000000
    34  C     c     0.035862    0.004166    0.004669    0.000000
    35  C     c     0.026711    0.983895    0.017437    0.000000
    36  C     c     0.035862    0.996490    0.992248    0.000000
    37  C     c     0.031224    0.002874    0.979480    0.000000
    38  C     c     0.031223    0.018442    0.004669    0.000000
    39  C     c     0.026711    0.024652    0.992248    0.000000
    40  C     c     0.026712    0.016761    0.979479    0.000000
    41  C     c     0.992258    0.010658    0.963911    0.000000
    42  C     c     0.007268    0.010658    0.963911    0.000000
    43  C     c     0.014568    0.020706    0.971588    0.000000
    44  C     c     0.984957    0.020706    0.971587    0.000000
    45  C     c     0.968301    0.002874    0.979478    0.000000
    46  C     c     0.975806    0.992544    0.971587    0.000000
    47  C     c     0.987619    0.996382    0.963911    0.000000
    48  C     c     0.972813    0.016761    0.979478    0.000000
    49  C     c     0.968301    0.018442    0.004668    0.000000
    50  C     c     0.963662    0.004166    0.004668    0.000000
    51  C     c     0.963663    0.996490    0.992247    0.000000
    52  C     c     0.972813    0.024652    0.992247    0.000000
    53  C     c     0.992257    0.035847    0.004668    0.000000
    54  C     c     0.987618    0.029463    0.017436    0.000000
    55  C     c     0.975805    0.020880    0.017436    0.000000
    56  C     c     0.984956    0.033475    0.992247    0.000000
    57  C     c     0.007063    0.031036    0.979479    0.000000
    58  C     c     0.014568    0.033475    0.992247    0.000000
    59  C     c     0.007267    0.035847    0.004668    0.000000
    60  C     c     0.992462    0.031036    0.979479    0.000000
--------------------------------------------------------------------------------

  Final Cartesian lattice vectors (Angstroms) :

      100.000000    0.000000    0.000000
        0.000000  100.000000    0.000000
        0.000000    0.000000  100.000000


  Final cell parameters and derivatives :

--------------------------------------------------------------------------------
       a          100.000000 Angstrom     dE/de1(xx)     0.000000 eV/strain
       b          100.000000 Angstrom     dE/de2(yy)     0.000000 eV/strain
       c          100.000000 Angstrom     dE/de3(zz)     0.000000 eV/strain
       alpha       90.000000 Degrees      dE/de4(yz)     0.000000 eV/strain
       beta        90.000000 Degrees      dE/de5(xz)     0.000000 eV/strain
       gamma       90.000000 Degrees      dE/de6(xy)     0.000000 eV/strain
--------------------------------------------------------------------------------

  Primitive cell volume =       1000000.000000 Angs**3

  Density of cell =      0.001197 g/cm**3

  Non-primitive cell volume =       1000000.000000 Angs**3


  Final internal derivatives :

--------------------------------------------------------------------------------
   No.  Atomic          a             b             c           Radius
        Label          (eV)          (eV)          (eV)        (eV/Angs)
--------------------------------------------------------------------------------
      1 C     c       0.000000      0.000000      0.000000      0.000000
      2 C     c      -0.000502      0.000145     -0.000049      0.000000
      3 C     c       0.000705     -0.001013     -0.001425      0.000000
      4 C     c       0.000025     -0.000104     -0.000099      0.000000
      5 C     c       0.000755     -0.001139      0.000059      0.000000
      6 C     c      -0.000294      0.000893     -0.000593      0.000000
      7 C     c       0.000510      0.000034      0.000563      0.000000
      8 C     c      -0.001157      0.001363     -0.000200      0.000000
      9 C     c      -0.000300     -0.000691     -0.000050      0.000000
     10 C     c       0.000680      0.001065      0.000053      0.000000
     11 C     c       0.001188      0.000220     -0.000676      0.000000
     12 C     c      -0.000487     -0.000366     -0.000335      0.000000
     13 C     c       0.000265     -0.000922     -0.000116      0.000000
     14 C     c      -0.000341      0.000731     -0.000331      0.000000
     15 C     c      -0.000012     -0.000087      0.000763      0.000000
     16 C     c      -0.000485      0.000657     -0.000252      0.000000
     17 C     c       0.000637     -0.000399     -0.000035      0.000000
     18 C     c      -0.000333      0.000725      0.000748      0.000000
     19 C     c       0.000603      0.000685      0.000508      0.000000
     20 C     c       0.000110     -0.000241     -0.000705      0.000000
     21 C     c       0.000836     -0.000624      0.000117      0.000000
     22 C     c      -0.000459      0.000730     -0.000201      0.000000
     23 C     c      -0.000329     -0.000644      0.000211      0.000000
     24 C     c      -0.000665      0.000644     -0.000617      0.000000
     25 C     c       0.000310     -0.000165      0.000829      0.000000
     26 C     c      -0.001139     -0.000069      0.000330      0.000000
     27 C     c      -0.000262      0.000312      0.000639      0.000000
     28 C     c       0.000562      0.000484     -0.000231      0.000000
     29 C     c       0.000822     -0.000011      0.000447      0.000000
     30 C     c      -0.000885      0.000594     -0.000681      0.000000
     31 C     c       0.000437     -0.000779     -0.000274      0.000000
     32 C     c      -0.000455      0.000516     -0.000526      0.000000
     33 C     c      -0.000248     -0.001458      0.000385      0.000000
     34 C     c      -0.000437     -0.000625     -0.001202      0.000000
     35 C     c      -0.000430      0.000212     -0.000154      0.000000
     36 C     c      -0.000119      0.000868      0.001134      0.000000
     37 C     c       0.000618     -0.000986      0.000916      0.000000
     38 C     c      -0.000407      0.000474     -0.000981      0.000000
     39 C     c       0.000720     -0.000188      0.000208      0.000000
     40 C     c      -0.000429      0.001037     -0.000479      0.000000
     41 C     c       0.000318     -0.001162     -0.000802      0.000000
     42 C     c      -0.000002     -0.001057      0.000011      0.000000
     43 C     c       0.000411      0.000551      0.000307      0.000000
     44 C     c      -0.001029      0.001350      0.001319      0.000000
     45 C     c      -0.000445     -0.000606      0.000230      0.000000
     46 C     c       0.000795     -0.000187      0.000241      0.000000
     47 C     c       0.000081     -0.000306     -0.000028      0.000000
     48 C     c       0.000447      0.001430      0.000495      0.000000
     49 C     c       0.000095      0.000122      0.000397      0.000000
     50 C     c       0.000525     -0.000521     -0.000057      0.000000
     51 C     c      -0.000239     -0.000269      0.000235      0.000000
     52 C     c       0.000723      0.000671     -0.000839      0.000000
     53 C     c       0.000133     -0.000048     -0.000460      0.000000
     54 C     c       0.000157     -0.000914     -0.000060      0.000000
     55 C     c       0.000137      0.000048      0.000408      0.000000
     56 C     c      -0.000028     -0.000094     -0.000822      0.000000
     57 C     c      -0.000912     -0.000180     -0.000029      0.000000
     58 C     c      -0.000247     -0.000447      0.000947      0.000000
     59 C     c       0.000555     -0.000029     -0.000273      0.000000
     60 C     c      -0.000363     -0.000276      0.000008      0.000000
--------------------------------------------------------------------------------
  Maximum abs         0.001188      0.001458      0.001425      0.000000
--------------------------------------------------------------------------------



  Elastic Constant Matrix: (Units=GPa)

-------------------------------------------------------------------------------
  Indices      1         2         3         4         5         6    
-------------------------------------------------------------------------------
       1      0.0000   -0.0000   -0.0000    0.0000   -0.0000    0.0000
       2     -0.0000    0.0000   -0.0000    0.0000   -0.0000    0.0000
       3     -0.0000   -0.0000    0.0000   -0.0000    0.0000    0.0000
       4      0.0000    0.0000   -0.0000    0.0000   -0.0000   -0.0000
       5      0.0000   -0.0000    0.0000   -0.0000    0.0000    0.0000
       6      0.0000    0.0000    0.0000   -0.0000    0.0000    0.0000
-------------------------------------------------------------------------------

  Mechanical properties :

-------------------------------------------------------------------------------
  Convention :                    Reuss         Voigt         Hill
-------------------------------------------------------------------------------
  Bulk  Modulus (GPa)     =       0.00000       0.00000       0.00000
  Shear Modulus (GPa)     =       0.00000       0.00000       0.00000
-------------------------------------------------------------------------------
  Velocity S-wave (km/s)  =       0.00758       0.00304       0.00578
  Velocity P-wave (km/s)  =       0.00959       0.00379       0.00730
-------------------------------------------------------------------------------
  Compressibility (1/GPa) = *************
-------------------------------------------------------------------------------
  Stress axis :                     x             y             z
-------------------------------------------------------------------------------
  Youngs Moduli (GPa)     =       0.00000       0.00000 *************
-------------------------------------------------------------------------------
  Poissons Ratio (x)      =                     0.00000       0.08250
  Poissons Ratio (y)      =       0.00000                     0.08625
  Poissons Ratio (z)      =       0.00000       0.00000
-------------------------------------------------------------------------------


  Piezoelectric Strain Matrix: (Units=C/m**2)

-------------------------------------------------------------------------------
  Indices      1         2         3         4         5         6    
-------------------------------------------------------------------------------
       x    -0.00000  -0.00000  -0.00000  -0.00000  -0.00000  -0.00000
       y    -0.00000  -0.00000  -0.00000  -0.00000  -0.00000  -0.00000
       z    -0.00000  -0.00000  -0.00000  -0.00000  -0.00000  -0.00000
-------------------------------------------------------------------------------


  Piezoelectric Stress Matrix: (Units=10**-11 C/N)

-------------------------------------------------------------------------------
  Indices      1         2         3         4         5         6    
-------------------------------------------------------------------------------
       x     0.00000   0.00000   0.00000   0.00000   0.00000   0.00000
       y     0.00000   0.00000   0.00000   0.00000   0.00000   0.00000
       z     0.00000   0.00000   0.00000   0.00000   0.00000   0.00000
-------------------------------------------------------------------------------


  Static dielectric constant tensor : 

-------------------------------------------------------------------------------
              x         y         z
-------------------------------------------------------------------------------
       x     1.00000   0.00000   0.00000
       y     0.00000   1.00000   0.00000
       z     0.00000   0.00000   1.00000
--------------------------------------------------------------------------------

  Static refractive indices : 

-------------------------------------------------------------------------------
    1 =    1.00000      2 =    1.00000      3 =    1.00000
-------------------------------------------------------------------------------


  Phonon Calculation : 

  K direction for n-a correction at gamma =  1.00000  1.00000  1.00000

  Number of k points for this configuration =        1

--------------------------------------------------------------------------------
  K point      1 =   0.000000  0.000000  0.000000  Weight =    1.000
--------------------------------------------------------------------------------


!!!!!!!!!!!!!!!!!!!!!!!!!!!!!!!!!!!!!!!!!!!!!!!!!!!!!!!!!!!!!!!!!!!!!!!!!!!!!!!!
!! ERROR : diagonalisation of dynamical matrix failed
!!!!!!!!!!!!!!!!!!!!!!!!!!!!!!!!!!!!!!!!!!!!!!!!!!!!!!!!!!!!!!!!!!!!!!!!!!!!!!!!


 Program terminated by processor     0 in          pdiagg

