********************************************************************************
*                       GENERAL UTILITY LATTICE PROGRAM                        *
*                                 Julian Gale                                  *
*                      Nanochemistry Research Institute                        *
*                           Department of Chemistry                            *
*                    Curtin University, Western Australia                      *
********************************************************************************
* Version = 4.0.5 * Last modified =  21st June 2012                            *
********************************************************************************
*  single       - perform a single point run                                   *
*  phonon       - calculate phonons for final geometry                         *
*  eigenvectors - output phonon eigenvectors                                   *
********************************************************************************

  Job Started  at 15:36.18 30th October    2012                               

  Number of CPUs =     1


  Total number of configurations input =   1

********************************************************************************
*  Input for Configuration =   1                                               *
********************************************************************************

  Formula = Ar4                                                         

  Number of irreducible atoms/shells =       4


  Total number atoms/shells =       4

  Dimensionality = 3               :  Bulk   



  Cartesian lattice vectors (Angstroms) :

        5.268652    0.000000    0.000000
        0.000000    5.268652    0.000000
        0.000000    0.000000    5.268652

  Cell parameters (Angstroms/Degrees):

  a =       5.2687    alpha =  90.0000
  b =       5.2687    beta  =  90.0000
  c =       5.2687    gamma =  90.0000

  Initial cell volume =         146.250898 Angs**3

  Temperature of configuration =  0.000     K 

  Pressure of configuration =         0.000 GPa 

  Fractional coordinates of asymmetric unit :

--------------------------------------------------------------------------------
   No.  Atomic       x           y          z         Charge      Occupancy
        Label      (Frac)      (Frac)     (Frac)        (e)         (Frac)  
--------------------------------------------------------------------------------
      1 Ar1   c    0.000000    0.000000    0.000000     0.00000    1.000000    
      2 Ar1   c    0.500000    0.500000    0.000000     0.00000    1.000000    
      3 Ar1   c    0.500000    0.000000    0.500000     0.00000    1.000000    
      4 Ar1   c    0.000000    0.500000    0.500000     0.00000    1.000000    
--------------------------------------------------------------------------------


  Brillouin zone sampling points :

--------------------------------------------------------------------------------
  Point number          x          y          z            Weight
--------------------------------------------------------------------------------
        1           0.025253   0.000000   0.000001         1.0000
--------------------------------------------------------------------------------


********************************************************************************
*  General input information                                                   *
********************************************************************************

  Species output for all configurations : 

--------------------------------------------------------------------------------
  Species    Type    Atomic    Atomic    Charge       Radii (Angs)     Library
                     Number     Mass       (e)     Cova   Ionic  VDW   Symbol
--------------------------------------------------------------------------------
    Ar1      Core       18      39.94   0.000000   0.000  0.000  0.000          
--------------------------------------------------------------------------------


  Lattice summation method               =    Ewald          (3-D)
                                         =    Parry          (2-D)
                                         =    Saunders et al (1-D)
  Accuracy factor for lattice sums       =   12.000


  Time limit = Infinity

  Maximum range for interatomic potentials =    100000.000000 Angstroms

  General interatomic potentials :

--------------------------------------------------------------------------------
Atom  Types   Potential         A         B         C         D     Cutoffs(Ang)
  1     2                                                            Min    Max 
--------------------------------------------------------------------------------
Ar1  c Ar1  c Lennard 12  6 0.995E+05  64.4      0.00      0.00     0.000  8.500
--------------------------------------------------------------------------------

********************************************************************************
*  Output for configuration   1                                                *
********************************************************************************


  Components of energy : 

--------------------------------------------------------------------------------
  Interatomic potentials     =          -0.33769963 eV
  Monopole - monopole (real) =           0.00000000 eV
  Monopole - monopole (recip)=           0.00000000 eV
  Monopole - monopole (total)=           0.00000000 eV
--------------------------------------------------------------------------------
  Total lattice energy       =          -0.33769963 eV
--------------------------------------------------------------------------------
  Total lattice energy       =             -32.5829 kJ/(mole unit cells)
--------------------------------------------------------------------------------


  Elastic Constant Matrix: (Units=GPa)

-------------------------------------------------------------------------------
  Indices      1         2         3         4         5         6    
-------------------------------------------------------------------------------
       1      4.1518    2.3636    2.3636   -0.0000   -0.0000   -0.0000
       2      2.3636    4.1518    2.3636    0.0000   -0.0000    0.0000
       3      2.3636    2.3636    4.1518    0.0000   -0.0000    0.0000
       4     -0.0000    0.0000    0.0000    2.3636    0.0000    0.0000
       5     -0.0000   -0.0000   -0.0000    0.0000    2.3636   -0.0000
       6     -0.0000    0.0000    0.0000    0.0000   -0.0000    2.3636
-------------------------------------------------------------------------------


  Elastic Compliance Matrix: (Units=1/GPa)

-------------------------------------------------------------------------------
  Indices      1         2         3         4         5         6    
-------------------------------------------------------------------------------
       1    0.410358 -0.148865 -0.148865  0.000000  0.000000  0.000000
       2   -0.148865  0.410358 -0.148865 -0.000000 -0.000000 -0.000000
       3   -0.148865 -0.148865  0.410358  0.000000 -0.000000 -0.000000
       4    0.000000 -0.000000  0.000000  0.423091  0.000000  0.000000
       5    0.000000 -0.000000 -0.000000  0.000000  0.423091  0.000000
       6    0.000000 -0.000000 -0.000000  0.000000  0.000000  0.423091
-------------------------------------------------------------------------------

  Mechanical properties :

-------------------------------------------------------------------------------
  Convention :                    Reuss         Voigt         Hill
-------------------------------------------------------------------------------
  Bulk  Modulus (GPa)     =       2.95962       2.95962       2.95962
  Shear Modulus (GPa)     =       1.42606       1.77577       1.60092
-------------------------------------------------------------------------------
  Velocity S-wave (km/s)  =       0.88663       0.98939       0.93942
  Velocity P-wave (km/s)  =       1.63696       1.71367       1.67576
-------------------------------------------------------------------------------
  Compressibility (1/GPa) =    0.33788120
-------------------------------------------------------------------------------
  Stress axis :                     x             y             z
-------------------------------------------------------------------------------
  Youngs Moduli (GPa)     =       2.43690       2.43690       2.43690
-------------------------------------------------------------------------------
  Poissons Ratio (x)      =                     0.36277       0.36277
  Poissons Ratio (y)      =       0.36277                     0.36277
  Poissons Ratio (z)      =       0.36277       0.36277
-------------------------------------------------------------------------------


  Piezoelectric Strain Matrix: (Units=C/m**2)

-------------------------------------------------------------------------------
  Indices      1         2         3         4         5         6    
-------------------------------------------------------------------------------
       x    -0.00000  -0.00000  -0.00000  -0.00000  -0.00000  -0.00000
       y    -0.00000  -0.00000  -0.00000  -0.00000  -0.00000  -0.00000
       z    -0.00000  -0.00000  -0.00000  -0.00000  -0.00000  -0.00000
-------------------------------------------------------------------------------


  Piezoelectric Stress Matrix: (Units=10**-11 C/N)

-------------------------------------------------------------------------------
  Indices      1         2         3         4         5         6    
-------------------------------------------------------------------------------
       x     0.00000   0.00000   0.00000   0.00000   0.00000   0.00000
       y     0.00000   0.00000   0.00000   0.00000   0.00000   0.00000
       z     0.00000   0.00000   0.00000   0.00000   0.00000   0.00000
-------------------------------------------------------------------------------


  Static dielectric constant tensor : 

-------------------------------------------------------------------------------
              x         y         z
-------------------------------------------------------------------------------
       x     1.00000   0.00000   0.00000
       y     0.00000   1.00000   0.00000
       z     0.00000   0.00000   1.00000
--------------------------------------------------------------------------------

  Static refractive indices : 

-------------------------------------------------------------------------------
    1 =    1.00000      2 =    1.00000      3 =    1.00000
-------------------------------------------------------------------------------


  Phonon Calculation : 

  Number of k points for this configuration =        1

--------------------------------------------------------------------------------
  K point      1 =   0.025253  0.000000  0.000001  Weight =    1.000
--------------------------------------------------------------------------------

 Frequencies (cm-1) and Eigenvectors : 

 Frequency       1.8244              1.8244              2.4185
 IR Intensity    0.0000              0.0000              0.0000
    in X         0.0000              0.0000              0.0000
    in Y         0.0000              0.0000              0.0000
    in Z         0.0000              0.0000              0.0000
 Raman Intsty    0.0000              0.0000              0.0000

                Real    Imaginary   Real    Imaginary   Real    Imaginary

     1 x       0.000052  0.000000 -0.000000  0.000000  0.500000  0.000000
     1 y      -0.000005 -0.000000 -0.500000 -0.000000  0.000000 -0.000000
     1 z      -0.500000  0.000000  0.000005 -0.000000  0.000052 -0.000000
     2 x       0.000052  0.000000 -0.000000 -0.000000  0.500000  0.000000
     2 y      -0.000005  0.000000 -0.500000 -0.000000  0.000000  0.000000
     2 z      -0.500000 -0.000000  0.000005  0.000000  0.000052  0.000000
     3 x       0.000052 -0.000000 -0.000000  0.000000  0.500000  0.000000
     3 y      -0.000005 -0.000000 -0.500000 -0.000000  0.000000 -0.000000
     3 z      -0.500000 -0.000000  0.000005  0.000000  0.000052  0.000000
     4 x       0.000052 -0.000000 -0.000000 -0.000000  0.500000  0.000000
     4 y      -0.000005  0.000000 -0.500000 -0.000000  0.000000  0.000000
     4 z      -0.500000  0.000000  0.000005  0.000000  0.000052 -0.000000


 Frequency      45.5676             45.5676             45.5998
 IR Intensity    0.0000              0.0000              0.0000
    in X         0.0000              0.0000              0.0000
    in Y         0.0000              0.0000              0.0000
    in Z         0.0000              0.0000              0.0000
 Raman Intsty    0.0000              0.0000              0.0000

                Real    Imaginary   Real    Imaginary   Real    Imaginary

     1 x       0.000000  0.000000  0.000000  0.000000 -0.499990  0.000000
     1 y      -0.003313 -0.000000  0.499989  0.000000  0.000000  0.000000
     1 z       0.499989  0.000000  0.003313  0.000000  0.000036 -0.000000
     2 x      -0.000000 -0.000000 -0.000000  0.000000  0.500010  0.000000
     2 y       0.003313  0.000000 -0.499989 -0.000000  0.000000  0.000000
     2 z      -0.499989 -0.000000 -0.003313 -0.000000 -0.000036  0.000000
     3 x      -0.000000  0.000000 -0.000000 -0.000000 -0.500010 -0.000000
     3 y       0.003313  0.000000 -0.499989 -0.000000 -0.000000  0.000000
     3 z      -0.499989 -0.000000 -0.003313 -0.000000  0.000036 -0.000000
     4 x       0.000000 -0.000000  0.000000 -0.000000  0.499990 -0.000000
     4 y      -0.003313 -0.000000  0.499989  0.000000 -0.000000  0.000000
     4 z       0.499989  0.000000  0.003313  0.000000 -0.000036  0.000000


 Frequency      45.5998             45.6448             45.6448
 IR Intensity    0.0000              0.0000              0.0000
    in X         0.0000              0.0000              0.0000
    in Y         0.0000              0.0000              0.0000
    in Z         0.0000              0.0000              0.0000
 Raman Intsty    0.0000              0.0000              0.0000

                Real    Imaginary   Real    Imaginary   Real    Imaginary

     1 x      -0.500010  0.000068 -0.000000  0.000000 -0.000036 -0.000000
     1 y       0.000000 -0.000000 -0.500000 -0.000000  0.000000  0.000000
     1 z      -0.000000 -0.000000 -0.000000 -0.000000 -0.500000 -0.000000
     2 x      -0.499990  0.000067  0.000000 -0.000000  0.000036 -0.000000
     2 y      -0.000000  0.000000 -0.500000  0.000000  0.000000  0.000000
     2 z      -0.000000  0.000000  0.000000  0.000000  0.500000  0.000000
     3 x       0.499990 -0.000067 -0.000000 -0.000000 -0.000036  0.000000
     3 y      -0.000000  0.000000  0.500000  0.000000 -0.000000  0.000000
     3 z       0.000000 -0.000000 -0.000000 -0.000000 -0.500000 -0.000000
     4 x       0.500010 -0.000068  0.000000  0.000000  0.000036  0.000000
     4 y       0.000000 -0.000000  0.500000 -0.000000 -0.000000  0.000000
     4 z       0.000000  0.000000  0.000000  0.000000  0.500000  0.000000


 Frequency      66.6010             66.6328             66.6328
 IR Intensity    0.0000              0.0000              0.0000
    in X         0.0000              0.0000              0.0000
    in Y         0.0000              0.0000              0.0000
    in Z         0.0000              0.0000              0.0000
 Raman Intsty    0.0000              0.0000              0.0000

                Real    Imaginary   Real    Imaginary   Real    Imaginary

     1 x       0.500000  0.000000 -0.000000  0.000000  0.000000  0.000000
     1 y      -0.000000 -0.000000 -0.499994  0.000000 -0.002362  0.000000
     1 z      -0.000000 -0.000000  0.002362 -0.000000 -0.499994  0.000000
     2 x      -0.500000 -0.000000 -0.000000  0.000000  0.000000 -0.000000
     2 y       0.000000 -0.000000  0.499994 -0.000000  0.002362 -0.000000
     2 z       0.000000  0.000000  0.002362  0.000000 -0.499994 -0.000000
     3 x      -0.500000 -0.000000  0.000000  0.000000 -0.000000  0.000000
     3 y      -0.000000  0.000000 -0.499994  0.000000 -0.002362  0.000000
     3 z       0.000000 -0.000000 -0.002362 -0.000000  0.499994  0.000000
     4 x       0.500000  0.000000  0.000000  0.000000 -0.000000 -0.000000
     4 y       0.000000  0.000000  0.499994 -0.000000  0.002362 -0.000000
     4 z      -0.000000  0.000000 -0.002362  0.000000  0.499994  0.000000




--------------------------------------------------------------------------------
  Phonon properties (per mole of unit cells): Temperature =      0.000 K
--------------------------------------------------------------------------------
  Zero point energy            =        0.029729 eV
--------------------------------------------------------------------------------

  Phonon density of states : 

--------------------------------------------------------------------------------
 Frequency (cm-1) Density of States                                             
--------------------------------------------------------------------------------
    0.00000 |                                                              0.000
    1.04114 |********************                                          0.167
    2.08228 |**********                                                    0.083
    3.12342 |                                                              0.000
    4.16456 |                                                              0.000
    5.20569 |                                                              0.000
    6.24683 |                                                              0.000
    7.28797 |                                                              0.000
    8.32911 |                                                              0.000
    9.37025 |                                                              0.000
   10.41139 |                                                              0.000
   11.45253 |                                                              0.000
   12.49367 |                                                              0.000
   13.53481 |                                                              0.000
   14.57594 |                                                              0.000
   15.61708 |                                                              0.000
   16.65822 |                                                              0.000
   17.69936 |                                                              0.000
   18.74050 |                                                              0.000
   19.78164 |                                                              0.000
   20.82278 |                                                              0.000
   21.86392 |                                                              0.000
   22.90505 |                                                              0.000
   23.94619 |                                                              0.000
   24.98733 |                                                              0.000
   26.02847 |                                                              0.000
   27.06961 |                                                              0.000
   28.11075 |                                                              0.000
   29.15189 |                                                              0.000
   30.19303 |                                                              0.000
   31.23417 |                                                              0.000
   32.27530 |                                                              0.000
   33.31644 |                                                              0.000
   34.35758 |                                                              0.000
   35.39872 |                                                              0.000
   36.43986 |                                                              0.000
   37.48100 |                                                              0.000
   38.52214 |                                                              0.000
   39.56328 |                                                              0.000
   40.60442 |                                                              0.000
   41.64555 |                                                              0.000
   42.68669 |                                                              0.000
   43.72783 |                                                              0.000
   44.76897 |************************************************************  0.500
   45.81011 |                                                              0.000
   46.85125 |                                                              0.000
   47.89239 |                                                              0.000
   48.93353 |                                                              0.000
   49.97466 |                                                              0.000
   51.01580 |                                                              0.000
   52.05694 |                                                              0.000
   53.09808 |                                                              0.000
   54.13922 |                                                              0.000
   55.18036 |                                                              0.000
   56.22150 |                                                              0.000
   57.26264 |                                                              0.000
   58.30378 |                                                              0.000
   59.34491 |                                                              0.000
   60.38605 |                                                              0.000
   61.42719 |                                                              0.000
   62.46833 |                                                              0.000
   63.50947 |                                                              0.000
   64.55061 |                                                              0.000
   65.59175 |******************************                                0.250
--------------------------------------------------------------------------------



  Time to end of properties =       0.0160 seconds


  Peak dynamic memory used =       0.47 MB 


  Timing analysis for GULP :

--------------------------------------------------------------------------------
  Task / Subroutine                                          Time (Seconds)
--------------------------------------------------------------------------------
--------------------------------------------------------------------------------
  Total CPU time                                                  0.0160
--------------------------------------------------------------------------------


  Job Finished at 15:36.18 30th October    2012                               

