********************************************************************************
*                       GENERAL UTILITY LATTICE PROGRAM                        *
*                                 Julian Gale                                  *
*                      Nanochemistry Research Institute                        *
*                           Department of Chemistry                            *
*                    Curtin University, Western Australia                      *
********************************************************************************
* Version = 4.0.5 * Last modified =  21st June 2012                            *
********************************************************************************
*  single       - perform a single point run                                   *
*  phonon       - calculate phonons for final geometry                         *
*  eigenvectors - output phonon eigenvectors                                   *
********************************************************************************

  Job Started  at 15:07.53 30th October    2012                               

  Number of CPUs =     1


  Total number of configurations input =   1

********************************************************************************
*  Input for Configuration =   1                                               *
********************************************************************************

  Formula = Ar4                                                         

  Number of irreducible atoms/shells =       4


  Total number atoms/shells =       4

  Dimensionality = 3               :  Bulk   



  Cartesian lattice vectors (Angstroms) :

        5.250000    0.000000    0.000000
        0.000000    5.250000    0.000000
        0.000000    0.000000    5.250000

  Cell parameters (Angstroms/Degrees):

  a =       5.2500    alpha =  90.0000
  b =       5.2500    beta  =  90.0000
  c =       5.2500    gamma =  90.0000

  Initial cell volume =         144.703125 Angs**3

  Temperature of configuration =  0.000     K 

  Pressure of configuration =         0.000 GPa 

  Fractional coordinates of asymmetric unit :

--------------------------------------------------------------------------------
   No.  Atomic       x           y          z         Charge      Occupancy
        Label      (Frac)      (Frac)     (Frac)        (e)         (Frac)  
--------------------------------------------------------------------------------
      1 Ar1   c    0.000000    0.000000    0.000000     0.00000    1.000000    
      2 Ar1   c    0.500000    0.500000    0.000000     0.00000    1.000000    
      3 Ar1   c    0.500000    0.000000    0.500000     0.00000    1.000000    
      4 Ar1   c    0.000000    0.500000    0.500000     0.00000    1.000000    
--------------------------------------------------------------------------------


  Brillouin zone sampling points :

--------------------------------------------------------------------------------
  Point number          x          y          z            Weight
--------------------------------------------------------------------------------
        1           0.000000   0.005051   0.010101         1.0000
--------------------------------------------------------------------------------


********************************************************************************
*  General input information                                                   *
********************************************************************************

  Species output for all configurations : 

--------------------------------------------------------------------------------
  Species    Type    Atomic    Atomic    Charge       Radii (Angs)     Library
                     Number     Mass       (e)     Cova   Ionic  VDW   Symbol
--------------------------------------------------------------------------------
    Ar1      Core       18      39.94   0.000000   0.000  0.000  0.000          
--------------------------------------------------------------------------------


  Lattice summation method               =    Ewald          (3-D)
                                         =    Parry          (2-D)
                                         =    Saunders et al (1-D)
  Accuracy factor for lattice sums       =   12.000


  Time limit = Infinity

  Maximum range for interatomic potentials =    100000.000000 Angstroms

  General interatomic potentials :

--------------------------------------------------------------------------------
Atom  Types   Potential         A         B         C         D     Cutoffs(Ang)
  1     2                                                            Min    Max 
--------------------------------------------------------------------------------
Ar1  c Ar1  c Lennard 12  6 0.995E+05  64.4      0.00      0.00     0.000  8.500
--------------------------------------------------------------------------------

********************************************************************************
*  Output for configuration   1                                                *
********************************************************************************


  Components of energy : 

--------------------------------------------------------------------------------
  Interatomic potentials     =          -0.33754343 eV
  Monopole - monopole (real) =           0.00000000 eV
  Monopole - monopole (recip)=           0.00000000 eV
  Monopole - monopole (total)=           0.00000000 eV
--------------------------------------------------------------------------------
  Total lattice energy       =          -0.33754343 eV
--------------------------------------------------------------------------------
  Total lattice energy       =             -32.5678 kJ/(mole unit cells)
--------------------------------------------------------------------------------


  Elastic Constant Matrix: (Units=GPa)

-------------------------------------------------------------------------------
  Indices      1         2         3         4         5         6    
-------------------------------------------------------------------------------
       1      4.4525    2.5543    2.5543    0.0000   -0.0000    0.0000
       2      2.5543    4.4525    2.5543    0.0000    0.0000    0.0000
       3      2.5543    2.5543    4.4525    0.0000   -0.0000   -0.0000
       4      0.0000    0.0000    0.0000    2.5215   -0.0000   -0.0000
       5     -0.0000    0.0000   -0.0000   -0.0000    2.5215    0.0000
       6      0.0000    0.0000   -0.0000   -0.0000    0.0000    2.5215
-------------------------------------------------------------------------------


  Elastic Compliance Matrix: (Units=1/GPa)

-------------------------------------------------------------------------------
  Indices      1         2         3         4         5         6    
-------------------------------------------------------------------------------
       1    0.386078 -0.140744 -0.140744  0.000000  0.000000 -0.000000
       2   -0.140744  0.386078 -0.140744 -0.000000 -0.000000 -0.000000
       3   -0.140744 -0.140744  0.386078 -0.000000  0.000000  0.000000
       4    0.000000 -0.000000 -0.000000  0.396596  0.000000  0.000000
       5    0.000000 -0.000000  0.000000  0.000000  0.396596 -0.000000
       6   -0.000000 -0.000000  0.000000  0.000000 -0.000000  0.396596
-------------------------------------------------------------------------------

  Mechanical properties :

-------------------------------------------------------------------------------
  Convention :                    Reuss         Voigt         Hill
-------------------------------------------------------------------------------
  Bulk  Modulus (GPa)     =       3.18704       3.18704       3.18704
  Shear Modulus (GPa)     =       1.51650       1.89251       1.70450
-------------------------------------------------------------------------------
  Velocity S-wave (km/s)  =       0.90946       1.01597       0.96419
  Velocity P-wave (km/s)  =       1.68555       1.76480       1.72563
-------------------------------------------------------------------------------
  Compressibility (1/GPa) =    0.31377053
-------------------------------------------------------------------------------
  Stress axis :                     x             y             z
-------------------------------------------------------------------------------
  Youngs Moduli (GPa)     =       2.59015       2.59015       2.59015
-------------------------------------------------------------------------------
  Poissons Ratio (x)      =                     0.36455       0.36455
  Poissons Ratio (y)      =       0.36455                     0.36455
  Poissons Ratio (z)      =       0.36455       0.36455
-------------------------------------------------------------------------------


  Piezoelectric Strain Matrix: (Units=C/m**2)

-------------------------------------------------------------------------------
  Indices      1         2         3         4         5         6    
-------------------------------------------------------------------------------
       x    -0.00000  -0.00000  -0.00000  -0.00000  -0.00000  -0.00000
       y    -0.00000  -0.00000  -0.00000  -0.00000  -0.00000  -0.00000
       z    -0.00000  -0.00000  -0.00000  -0.00000  -0.00000  -0.00000
-------------------------------------------------------------------------------


  Piezoelectric Stress Matrix: (Units=10**-11 C/N)

-------------------------------------------------------------------------------
  Indices      1         2         3         4         5         6    
-------------------------------------------------------------------------------
       x     0.00000   0.00000   0.00000   0.00000   0.00000   0.00000
       y     0.00000   0.00000   0.00000   0.00000   0.00000   0.00000
       z     0.00000   0.00000   0.00000   0.00000   0.00000   0.00000
-------------------------------------------------------------------------------


  Static dielectric constant tensor : 

-------------------------------------------------------------------------------
              x         y         z
-------------------------------------------------------------------------------
       x     1.00000   0.00000   0.00000
       y     0.00000   1.00000   0.00000
       z     0.00000   0.00000   1.00000
--------------------------------------------------------------------------------

  Static refractive indices : 

-------------------------------------------------------------------------------
    1 =    1.00000      2 =    1.00000      3 =    1.00000
-------------------------------------------------------------------------------


  Phonon Calculation : 

  Number of k points for this configuration =        1

--------------------------------------------------------------------------------
  K point      1 =   0.000000  0.005051  0.010101  Weight =    1.000
--------------------------------------------------------------------------------

 Frequencies (cm-1) and Eigenvectors : 

 Frequency       0.6219              0.8414              1.2573
 IR Intensity    0.0000              0.0000              0.0000
    in X         0.0000              0.0000              0.0000
    in Y         0.0000              0.0000              0.0000
    in Z         0.0000              0.0000              0.0000
 Raman Intsty    0.0000              0.0000              0.0000

                Real    Imaginary   Real    Imaginary   Real    Imaginary

     1 x       0.000000  0.000000  0.500000  0.000001 -0.000000 -0.000000
     1 y       0.399550 -0.000000 -0.000000 -0.000000  0.300599 -0.000000
     1 z      -0.300599 -0.000000  0.000000 -0.000000  0.399550  0.000000
     2 x       0.000000 -0.000000  0.500000  0.000001 -0.000000 -0.000000
     2 y       0.399550 -0.000000 -0.000000 -0.000000  0.300599 -0.000000
     2 z      -0.300599 -0.000000  0.000000  0.000000  0.399550  0.000000
     3 x       0.000000 -0.000000  0.500000  0.000001 -0.000000  0.000000
     3 y       0.399550  0.000000 -0.000000 -0.000000  0.300599  0.000000
     3 z      -0.300599 -0.000000  0.000000  0.000000  0.399550 -0.000000
     4 x       0.000000  0.000000  0.500000  0.000001 -0.000000 -0.000000
     4 y       0.399550  0.000000 -0.000000 -0.000000  0.300599  0.000000
     4 z      -0.300599  0.000000  0.000000  0.000000  0.399550  0.000000


 Frequency      47.0273             47.0292             47.0299
 IR Intensity    0.0000              0.0000              0.0000
    in X         0.0000              0.0000              0.0000
    in Y         0.0000              0.0000              0.0000
    in Z         0.0000              0.0000              0.0000
 Raman Intsty    0.0000              0.0000              0.0000

                Real    Imaginary   Real    Imaginary   Real    Imaginary

     1 x       0.000000 -0.000000 -0.499989 -0.003384  0.000000  0.000000
     1 y      -0.500000  0.000000  0.000000  0.000000  0.279025  0.000000
     1 z      -0.000124  0.000000 -0.000000 -0.000000 -0.414903 -0.000000
     2 x       0.000000  0.000000 -0.499989 -0.003384  0.000000  0.000000
     2 y      -0.500000  0.000000 -0.000000 -0.000000 -0.279025 -0.000000
     2 z      -0.000124 -0.000000  0.000000  0.000000  0.414903  0.000000
     3 x      -0.000000 -0.000000  0.499989  0.003384 -0.000000 -0.000000
     3 y       0.500000 -0.000000 -0.000000 -0.000000 -0.279025 -0.000000
     3 z       0.000124 -0.000000  0.000000  0.000000  0.414903 -0.000000
     4 x      -0.000000  0.000000  0.499989  0.003384 -0.000000 -0.000000
     4 y       0.500000 -0.000000  0.000000  0.000000  0.279025  0.000000
     4 z       0.000124  0.000000 -0.000000  0.000000 -0.414903  0.000000


 Frequency      47.0313             47.0387             47.0447
 IR Intensity    0.0000              0.0000              0.0000
    in X         0.0000              0.0000              0.0000
    in Y         0.0000              0.0000              0.0000
    in Z         0.0000              0.0000              0.0000
 Raman Intsty    0.0000              0.0000              0.0000

                Real    Imaginary   Real    Imaginary   Real    Imaginary

     1 x      -0.000000  0.000000  0.500000  0.000518 -0.000000  0.000000
     1 y       0.000124 -0.000000  0.000000 -0.000000 -0.414903 -0.000000
     1 z       0.500000  0.000000 -0.000000  0.000000 -0.279025  0.000000
     2 x      -0.000000  0.000000 -0.500000 -0.000518  0.000000 -0.000000
     2 y      -0.000124  0.000000  0.000000  0.000000  0.414903 -0.000000
     2 z      -0.500000 -0.000000  0.000000 -0.000000  0.279025 -0.000000
     3 x       0.000000 -0.000000  0.500000  0.000518 -0.000000  0.000000
     3 y       0.000124  0.000000 -0.000000  0.000000  0.414903  0.000000
     3 z       0.500000  0.000000  0.000000  0.000000  0.279025  0.000000
     4 x       0.000000 -0.000000 -0.500000 -0.000518  0.000000 -0.000000
     4 y      -0.000124 -0.000000 -0.000000 -0.000000 -0.414903  0.000000
     4 z      -0.500000  0.000000 -0.000000  0.000000 -0.279025  0.000000


 Frequency      68.8767             68.8806             68.8819
 IR Intensity    0.0000              0.0000              0.0000
    in X         0.0000              0.0000              0.0000
    in Y         0.0000              0.0000              0.0000
    in Z         0.0000              0.0000              0.0000
 Raman Intsty    0.0000              0.0000              0.0000

                Real    Imaginary   Real    Imaginary   Real    Imaginary

     1 x      -0.000000 -0.000000 -0.000000 -0.000000  0.500000  0.000061
     1 y      -0.000124 -0.000000 -0.500000  0.000000 -0.000000 -0.000000
     1 z       0.500000  0.000000  0.000124 -0.000000  0.000000 -0.000000
     2 x       0.000000  0.000000  0.000000  0.000000 -0.500000 -0.000061
     2 y      -0.000124  0.000000  0.500000 -0.000000  0.000000  0.000000
     2 z       0.500000  0.000000 -0.000124  0.000000  0.000000 -0.000000
     3 x       0.000000  0.000000  0.000000  0.000000 -0.500000 -0.000061
     3 y       0.000124  0.000000 -0.500000  0.000000 -0.000000 -0.000000
     3 z      -0.500000 -0.000000  0.000124  0.000000 -0.000000 -0.000000
     4 x      -0.000000 -0.000000 -0.000000 -0.000000  0.500000  0.000061
     4 y       0.000124 -0.000000  0.500000 -0.000000  0.000000  0.000000
     4 z      -0.500000  0.000000 -0.000124  0.000000 -0.000000  0.000000




--------------------------------------------------------------------------------
  Phonon properties (per mole of unit cells): Temperature =      0.000 K
--------------------------------------------------------------------------------
  Zero point energy            =        0.030382 eV
--------------------------------------------------------------------------------

  Phonon density of states : 

--------------------------------------------------------------------------------
 Frequency (cm-1) Density of States                                             
--------------------------------------------------------------------------------
    0.00000 |********************                                          0.167
    1.07628 |**********                                                    0.083
    2.15256 |                                                              0.000
    3.22884 |                                                              0.000
    4.30512 |                                                              0.000
    5.38140 |                                                              0.000
    6.45768 |                                                              0.000
    7.53396 |                                                              0.000
    8.61024 |                                                              0.000
    9.68652 |                                                              0.000
   10.76280 |                                                              0.000
   11.83908 |                                                              0.000
   12.91536 |                                                              0.000
   13.99164 |                                                              0.000
   15.06792 |                                                              0.000
   16.14420 |                                                              0.000
   17.22048 |                                                              0.000
   18.29676 |                                                              0.000
   19.37304 |                                                              0.000
   20.44932 |                                                              0.000
   21.52560 |                                                              0.000
   22.60188 |                                                              0.000
   23.67816 |                                                              0.000
   24.75444 |                                                              0.000
   25.83072 |                                                              0.000
   26.90700 |                                                              0.000
   27.98328 |                                                              0.000
   29.05956 |                                                              0.000
   30.13584 |                                                              0.000
   31.21212 |                                                              0.000
   32.28840 |                                                              0.000
   33.36468 |                                                              0.000
   34.44096 |                                                              0.000
   35.51724 |                                                              0.000
   36.59352 |                                                              0.000
   37.66980 |                                                              0.000
   38.74608 |                                                              0.000
   39.82236 |                                                              0.000
   40.89864 |                                                              0.000
   41.97492 |                                                              0.000
   43.05120 |                                                              0.000
   44.12748 |                                                              0.000
   45.20376 |                                                              0.000
   46.28004 |************************************************************  0.500
   47.35632 |                                                              0.000
   48.43260 |                                                              0.000
   49.50888 |                                                              0.000
   50.58516 |                                                              0.000
   51.66144 |                                                              0.000
   52.73772 |                                                              0.000
   53.81400 |                                                              0.000
   54.89028 |                                                              0.000
   55.96656 |                                                              0.000
   57.04284 |                                                              0.000
   58.11912 |                                                              0.000
   59.19540 |                                                              0.000
   60.27168 |                                                              0.000
   61.34796 |                                                              0.000
   62.42424 |                                                              0.000
   63.50052 |                                                              0.000
   64.57680 |                                                              0.000
   65.65308 |                                                              0.000
   66.72936 |                                                              0.000
   67.80564 |******************************                                0.250
--------------------------------------------------------------------------------



  Time to end of properties =       0.0120 seconds


  Peak dynamic memory used =       0.47 MB 


  Timing analysis for GULP :

--------------------------------------------------------------------------------
  Task / Subroutine                                          Time (Seconds)
--------------------------------------------------------------------------------
--------------------------------------------------------------------------------
  Total CPU time                                                  0.0120
--------------------------------------------------------------------------------


  Job Finished at 15:07.53 30th October    2012                               

