88
Atoms. Timestep: 0
1 50.993 53.067 57.215
1 50.592 52.3936 56.0114
1 49.5065 51.3832 56.0539
1 48.8578 51.0788 57.2963
1 49.2719 51.7745 58.5397
1 50.3212 52.7516 58.4996
1 50.19 54.013 59.2697
1 50.7802 55.1078 58.4606
1 51.2762 54.5231 57.1903
1 51.1499 55.258 55.9651
1 50.7358 54.5623 54.7218
1 50.4616 53.1547 54.7446
1 49.2956 52.6138 54.0033
1 48.7054 51.5191 54.8124
1 47.2823 51.3456 54.8547
1 46.6112 51.0305 56.1399
1 47.3856 50.8994 57.34
1 46.8899 51.4841 58.6103
1 48.0557 52.025 59.3517
1 47.929 53.2442 60.0964
1 49.0142 54.2551 60.0546
1 48.3882 55.6002 60.0576
1 48.9587 56.6585 59.2755
1 50.1749 56.4081 58.4634
1 50.0446 57.1684 57.1961
1 50.5238 56.6031 55.9681
1 49.7228 56.7388 54.7266
1 49.8538 55.4775 53.9564
1 48.7268 54.9547 53.2395
1 48.443 53.4986 53.2635
1 46.9708 53.3191 53.3071
1 46.4003 52.2608 54.0893
1 45.1841 52.5113 54.9014
1 45.3145 51.7509 56.1687
1 44.8353 52.3161 57.3967
1 45.6363 52.1804 58.6382
1 45.5053 53.4417 59.4085
1 46.6323 53.9646 60.1252
1 46.9161 55.4207 60.1013
1 46.0635 56.3054 59.3613
1 46.6536 57.4002 58.5522
1 48.0768 57.5737 58.51
1 48.7479 57.8889 57.2249
1 47.9736 58.02 56.0247
1 48.4693 57.4353 54.7544
1 47.3035 56.8944 54.013
1 47.4301 55.6751 53.2684
1 46.3448 54.6643 53.3101
1 45.1691 54.9064 54.0952
1 44.5789 53.8117 54.9043
1 44.0832 54.3964 56.1746
1 44.2092 53.6612 57.3997
1 44.6234 54.3569 58.6431
1 44.8977 55.7645 58.6199
1 44.7674 56.525 57.3526
1 44.3671 55.8525 56.1506
1 45.0382 56.1677 54.8655
1 46.0873 57.1449 54.8251
1 46.5014 57.8405 56.0684
1 45.8526 57.5358 57.3108
2 51.9314 52.0495 56.6146
3 52.0159 50.7211 57.3275
4 52.1099 50.681 58.7238
4 52.1875 49.4495 59.385
4 52.1725 48.2581 58.6499
4 52.0806 48.2982 57.2535
5 54.1358 52.2279 53.3073
6 56.2447 53.0324 53.0723
4 52.003 49.5297 56.5922
7 53.1304 52.6491 55.879
7 54.3701 51.7604 55.9865
7 55.5611 52.3545 55.2337
8 55.2342 52.5303 53.7701
9 56.0314 53.2314 51.6927
10 52.1227 51.5999 59.2914
10 52.2599 49.4183 60.4623
10 52.2332 47.3081 59.1603
10 52.0707 47.3786 56.687
10 51.9333 49.5602 55.5149
11 52.8771 52.7952 54.829
11 53.3527 53.6353 56.2868
11 54.1458 50.7711 55.5881
11 54.6332 51.6247 57.0356
11 55.8312 53.3227 55.6555
11 56.432 51.7059 55.3287
11 55.7924 52.2857 51.2064
11 55.2053 53.9243 51.5336
11 56.9267 53.6449 51.2282
88
Atoms. Timestep: 1
1 59.4367 28.4203 30.0286
1 76.8881 57.7443 82.4251
1 65.8321 37.1264 40.7159
1 49.246 29.3602 72.5565
1 48.1409 27.5141 69.2553
1 74.9989 52.5392 68.2651
1 75.3686 49.2226 66.2002
1 73.812 46.3346 68.334
1 72.5194 47.9183 71.6837
1 69.2611 66.6996 40.2866
1 70.3576 68.5449 43.6072
1 63.3301 32.5039 44.1363
1 66.4107 33.9128 46.1356
1 67.9757 36.8044 44.0034
1 31.5352 32.3533 45.0823
1 33.2943 33.1846 41.715
1 53.1166 29.8311 72.4077
1 54.4091 28.282 69.094
1 51.3643 26.8659 67.1325
1 48.1042 58.0714 86.1909
1 45.2592 55.4122 86.3063
1 46.9058 51.8899 86.3015
1 61.5088 78.9741 66.2751
1 58.3051 79.6306 68.4049
1 58.6519 77.6361 71.737
1 70.9217 63.1601 40.3136
1 73.0242 62.8121 43.561
1 72.6835 66.1178 45.5945
1 43.8425 52.7436 27.2447
1 44.5813 56.5592 27.1701
1 48.4427 57.0359 27.063
1 33.8441 29.9497 47.0931
1 37.0376 29.2871 44.9609
1 36.7007 31.2877 41.631
1 24.4379 45.7528 73.0605
1 22.3346 46.1086 69.7879
1 22.6757 42.7952 67.7769
1 51.5274 56.1761 86.1259
1 50.7729 52.3489 86.1845
1 28.9521 74.9984 67.2533
1 27.4003 72.1261 69.361
1 63.83 76.5664 68.2906
1 62.0691 75.7427 71.6655
1 42.2575 79.1017 40.9424
1 40.9541 80.6305 44.2823
1 43.9995 82.0496 46.2341
1 47.2389 50.8433 27.1639
1 50.0908 53.5024 27.0527
1 20.0134 59.692 47.1558
1 21.5507 62.5685 45.023
1 22.854 61.0412 41.6884
1 26.0746 42.2215 73.0373
1 24.9883 40.4 69.7827
1 32.011 76.4182 69.1926
1 32.3551 74.4267 72.5211
1 22.1135 57.2057 41.7569
1 20.3502 56.3814 45.1318
1 47.2038 81.3995 44.0975
1 46.1141 79.5741 40.8298
1 29.5016 71.7778 72.6256
2 51.9356 52.0552 56.6102
3 52.0136 50.7242 57.3226
4 52.1041 50.6775 58.7296
4 52.1907 49.4469 59.3922
4 52.1658 48.2534 58.6522
4 52.0771 48.2963 57.2624
5 54.1383 52.2309 53.3012
6 56.2454 53.032 53.0726
4 52.005 49.5273 56.5864
7 53.1338 52.6435 55.8775
7 54.3649 51.7645 55.9885
7 55.5626 52.3558 55.2406
8 55.237 52.5273 53.7756
9 56.0276 53.234 51.6895
10 52.1144 51.6156 59.2935
10 52.2795 49.4172 60.4683
10 52.2036 47.3114 59.1538
10 52.0851 47.3995 56.6685
10 51.9374 49.5555 55.5181
11 52.8756 52.7974 54.8302
11 53.3539 53.6387 56.2674
11 54.1466 50.7753 55.5492
11 54.6414 51.6242 57.0541
11 55.8491 53.3446 55.6828
11 56.4138 51.7026 55.3244
11 55.7952 52.2702 51.2156
11 55.2121 53.9015 51.5232
11 56.9092 53.6548 51.2106
88
Atoms. Timestep: 2
1 67.4788 4.98116 4.18502
1 101.901 62.8211 107.535
1 81.6843 23.2831 25.8227
1 49.623 8.27124 87.3743
1 47.0426 3.95718 79.6602
1 98.9611 52.333 77.7474
1 99.8171 44.571 72.9297
1 96.176 37.8158 77.9212
1 93.1467 41.5049 85.7569
1 86.8472 77.8094 25.0627
1 89.4104 82.1221 32.815
1 75.8256 12.4519 33.8356
1 83.0295 15.754 38.496
1 86.6872 22.5163 33.5077
1 16.2447 13.9117 35.5932
1 20.3635 15.8562 27.7084
1 58.6814 9.37369 87.0385
1 61.7103 5.75265 79.2736
1 54.577 2.43631 74.6877
1 48.2742 62.7587 111.529
1 41.613 56.5358 111.797
1 45.4664 48.2872 111.784
1 73.695 100.643 73.0717
1 66.1995 102.18 78.0582
1 67.0095 97.5104 85.8563
1 90.7281 69.527 25.113
1 95.65 68.7093 32.7192
1 94.8513 76.4495 37.475
1 39.0998 50.5966 2.00349
1 40.8316 59.531 1.83332
1 49.8719 60.645 1.57978
1 21.652 8.28544 40.2998
1 29.1272 6.73635 35.3087
1 28.3366 11.4178 27.5147
1 4.63186 39.3798 88.2701
1 -0.2915 40.2129 80.6142
1 0.507993 32.4574 75.9026
1 56.2806 58.3235 111.373
1 54.5179 49.3661 111.511
1 12.3369 93.1494 74.9164
1 8.7051 86.4251 79.8563
1 79.1265 95.0084 77.7876
1 75.0041 93.0789 85.6874
1 36.7072 99.5722 26.2974
1 33.6569 103.153 34.1138
1 40.7913 106.475 38.6807
1 47.0533 46.1516 1.81639
1 53.7282 52.3742 1.55663
1 -4.41297 64.3389 40.4175
1 -0.809863 71.0714 35.4282
1 2.24027 67.4934 27.6222
1 8.46579 31.1135 88.2215
1 5.92249 26.8477 80.5994
1 19.4979 96.4731 79.4587
1 20.3027 91.8094 87.2499
1 0.505098 58.5197 27.7805
1 -3.62204 56.589 35.6803
1 48.2879 104.951 33.681
1 45.7381 100.678 26.033
1 13.6248 85.6069 87.4965
2 52.6216 51.6814 56.591
3 52.0102 50.727 57.3184
4 52.0986 50.6745 58.7351
4 52.1939 49.4442 59.399
4 52.1592 48.2492 58.6546
4 52.0739 48.2948 57.2703
5 54.1407 52.2339 53.2953
6 56.2462 53.0317 53.0729
4 52.0069 49.5251 56.5814
7 53.1335 52.6433 55.8744
7 54.3602 51.7681 55.9904
7 55.5638 52.3578 55.2475
8 55.2397 52.5244 53.7805
9 56.0243 53.2359 51.6864
10 52.1067 51.6264 59.2944
10 52.2973 49.416 60.4741
10 52.1766 47.3116 59.1493
10 52.0979 47.4167 56.653
10 51.9416 49.5508 55.5183
11 52.875 52.7979 54.8304
11 53.3538 53.6411 56.2501
11 54.1475 50.7823 55.5153
11 54.6466 51.6229 57.0667
11 55.8656 53.3585 55.7048
11 56.3991 51.6975 55.3211
11 55.7982 52.2577 51.2252
11 55.2132 53.8827 51.5137
11 56.8932 53.6641 51.1942
88
Atoms. Timestep: 3
1 74.7157 -16.0398 -18.973
1 124.345 67.3527 130.034
1 96.563 10.2899 11.8441
1 49.9768 -11.5225 101.282
1 46.0117 -18.153 89.4261
1 121.452 52.1394 86.6474
1 122.764 40.2052 79.246
1 117.167 29.8201 86.9195
1 112.507 35.4855 98.9659
1 103.353 88.237 10.7738
1 107.293 94.8655 22.6855
1 87.5536 -6.36864 24.1676
1 98.6277 -1.28956 31.3256
1 104.25 9.10571 23.6566
1 1.89319 -3.39734 26.6869
1 8.22689 -0.408076 14.562
1 63.9044 -9.82733 100.771
1 68.5631 -15.3931 88.8282
1 57.5924 -20.493 81.7789
1 48.4338 67.1581 135.311
1 38.1908 57.5904 135.722
1 44.1153 44.9057 135.702
1 85.1328 120.981 79.4509
1 73.6091 123.344 87.1186
1 74.8539 116.164 99.1084
1 109.318 75.5028 10.8459
1 116.886 74.2444 22.5433
1 115.658 86.1467 29.8543
1 34.6483 48.5815 -21.6875
1 37.3122 62.3203 -21.9474
1 51.2134 64.0325 -22.3384
1 10.2086 -12.0483 33.9238
1 21.7027 -14.4295 26.2493
1 20.4863 -7.23171 14.2654
1 -13.9578 33.3981 102.546
1 -21.528 34.6792 90.7757
1 -20.2983 22.7545 83.5294
1 60.7418 60.339 135.069
1 58.0329 46.5665 135.283
1 -3.25793 110.186 82.1089
1 -8.84191 99.8459 89.707
1 93.4835 112.318 86.7014
1 87.1446 109.35 98.8482
1 31.4977 118.785 12.5518
1 26.8078 124.293 24.5698
1 37.7802 129.401 31.5912
1 46.8791 41.748 -21.9745
1 57.1422 51.3153 -22.3736
1 -27.3392 68.7004 34.0932
1 -21.7972 79.0522 26.4227
1 -17.1075 73.5494 14.4199
1 -8.06159 20.6877 102.473
1 -11.9724 14.1278 90.7517
1 7.75328 115.296 89.0943
1 8.99056 108.124 101.074
1 -19.7762 59.753 14.6624
1 -26.122 56.7838 26.8093
1 49.3054 127.056 23.9042
1 45.3851 120.485 12.145
1 -1.27706 98.5866 101.454
2 54.6235 50.579 56.5456
3 52.0001 50.7293 57.3137
4 52.0926 50.673 58.7398
4 52.1971 49.4416 59.4051
4 52.1527 48.2458 58.6572
4 52.071 48.294 57.2763
5 54.1431 52.2367 53.2901
6 56.247 53.0316 53.0733
4 52.0074 49.5226 56.5788
7 53.1267 52.6492 55.8691
7 54.358 51.7727 55.9907
7 55.5645 52.3609 55.2543
8 55.2422 52.5219 53.7845
9 56.0216 53.2365 51.6835
10 52.1058 51.6293 59.2934
10 52.312 49.4145 60.4795
10 52.1544 47.3068 59.1481
10 52.1076 47.4274 56.643
10 51.9516 49.5463 55.5139
11 52.8665 52.7867 54.8297
11 53.3475 53.6395 56.2488
11 54.1485 50.7932 55.4904
11 54.6468 51.6202 57.0699
11 55.8786 53.3594 55.7187
11 56.3902 51.6897 55.3198
11 55.8014 52.2504 51.2346
11 55.2052 53.8707 51.5053
11 56.8801 53.672 51.1801
88
Atoms. Timestep: 4
1 81.1373 -34.5179 -39.2846
1 144.104 71.285 149.766
1 110.64 -2.00356 -1.38166
1 50.3115 -30.2503 114.441
1 45.0364 -39.0725 98.666
1 142.731 51.9563 95.068
1 144.475 36.0744 85.2221
1 137.027 22.2551 95.4333
1 130.825 29.7902 111.463
1 118.97 98.103 -2.74562
1 124.213 106.923 13.1015
1 98.65 -24.1756 15.0202
1 113.386 -17.4153 24.5413
1 120.866 -3.58266 14.3361
1 -11.6854 -19.7742 18.2603
1 -3.25615 -15.7964 2.12362
1 68.8461 -27.9943 113.764
1 75.0469 -35.4 97.8681
1 60.4454 -42.1874 88.4882
1 48.5849 71.3205 157.812
1 34.9528 58.5882 158.358
1 42.8371 41.7063 158.332
1 95.9546 140.223 85.4866
1 80.6197 143.369 95.691
1 82.2759 133.813 111.647
1 126.907 81.1568 -2.65283
1 136.979 79.4813 12.9153
1 135.344 95.3217 22.6439
1 30.4366 46.6749 -44.1027
1 33.9823 64.9593 -44.4475
1 52.4826 67.2375 -44.9685
1 -0.618492 -31.287 27.8911
1 14.678 -34.4555 17.6777
1 13.0587 -24.8769 1.72964
1 -31.5463 27.7386 116.052
1 -41.6209 29.4435 100.39
1 -39.9841 13.5742 90.7453
1 64.9628 62.2459 157.489
1 61.3586 43.9176 157.774
1 -18.0129 126.305 88.914
1 -25.4439 112.544 99.0273
1 107.067 128.695 95.1351
1 98.6314 124.746 111.3
1 26.5688 136.964 -0.45361
1 20.3275 144.293 15.5398
1 34.9312 151.092 24.8836
1 46.7142 37.5815 -44.4841
1 60.3724 50.3135 -45.0152
1 -49.0308 72.827 28.1094
1 -41.6542 86.6032 17.9021
1 -35.4133 79.2792 1.92856
1 -23.6989 10.8233 115.957
1 -28.9035 2.09284 100.357
1 -3.35883 133.106 98.211
1 -1.71242 123.561 114.154
1 -38.9653 60.9198 2.25086
1 -47.4102 56.9681 18.416
1 50.2682 147.97 14.654
1 45.0512 139.226 -0.99516
1 -15.3764 110.867 114.66
2 58.3767 48.4993 56.4641
3 52.0228 50.7248 57.3028
4 52.0851 50.6726 58.7436
4 52.2002 49.439 59.4105
4 52.1462 48.2431 58.6601
4 52.0685 48.2941 57.2802
5 54.1455 52.2393 53.2857
6 56.2479 53.0318 53.0737
4 52.0029 49.52 56.5787
7 53.1324 52.6378 55.8698
7 54.3611 51.7821 55.9866
7 55.5648 52.365 55.2611
8 55.2446 52.5199 53.7872
9 56.0194 53.236 51.6809
10 52.1046 51.6239 59.2914
10 52.3233 49.4125 60.4846
10 52.1375 47.2971 59.1502
10 52.1137 47.4306 56.6398
10 51.9633 49.5413 55.5056
11 52.8616 52.7682 54.8241
11 53.3475 53.6356 56.2549
11 54.1497 50.8083 55.4759
11 54.6414 51.616 57.0632
11 55.8878 53.3475 55.7241
11 56.3874 51.6794 55.3209
11 55.8052 52.2484 51.2434
11 55.1876 53.8651 51.4986
11 56.8702 53.6786 51.1685
88
Atoms. Timestep: 5
1 86.7104 -50.1827 -56.4086
1 160.919 74.51 166.395
1 123.916 -13.5966 -13.8539
1 50.6272 -47.9112 126.85
1 44.1167 -58.8002 107.38
1 162.798 51.7836 103.009
1 164.95 32.179 90.8577
1 155.755 15.121 103.462
1 148.099 24.4194 123.249
1 133.698 107.407 -15.4948
1 140.168 118.293 4.0636
1 109.114 -40.9681 6.3939
1 127.303 -32.6223 18.1436
1 136.536 -15.5481 5.54651
1 -24.4904 -35.2181 10.3137
1 -14.085 -30.308 -9.60614
1 73.5063 -45.1262 126.016
1 81.1612 -54.2671 106.393
1 63.1359 -62.6458 94.8152
1 48.7273 75.2459 179.031
1 31.8994 59.5291 179.705
1 41.6316 38.6892 179.673
1 106.16 158.369 91.1784
1 87.2308 162.252 103.775
1 89.2749 150.457 123.471
1 143.494 86.4887 -15.3825
1 155.927 84.4199 3.8359
1 153.908 103.974 15.8443
1 26.4648 44.8769 -65.2408
1 30.8421 67.4481 -65.6657
1 53.6794 70.2599 -66.3093
1 -10.8287 -49.4296 22.2021
1 8.05357 -53.3405 9.5945
1 6.05426 -41.5168 -10.0919
1 -48.1327 22.4016 128.79
1 -60.569 24.5062 109.456
1 -58.5483 4.91683 97.5502
1 68.9433 64.0442 178.632
1 64.4948 41.4197 178.984
1 -31.9272 141.505 95.3314
1 -41.1001 124.519 107.817
1 119.877 144.139 103.088
1 109.464 139.264 123.043
1 21.9207 154.107 -12.718
1 14.2165 163.155 7.02427
1 32.2445 171.547 18.558
1 46.5588 33.6525 -65.7112
1 63.4185 49.3687 -66.3667
1 -69.4865 76.7185 22.4665
1 -60.3799 93.7239 9.86702
1 -52.6761 84.6825 -9.8511
1 -38.4453 1.52098 128.673
1 -44.87 -9.25644 109.416
1 -13.8378 149.901 106.808
1 -11.8056 138.118 126.488
1 -57.0611 62.0202 -9.4536
1 -67.4856 57.1419 10.5009
1 51.1761 167.693 5.93075
1 44.7362 156.898 -13.3866
1 -28.6724 122.448 127.113
2 64.0354 45.3556 56.3415
3 52.1578 50.6791 57.2811
4 52.0757 50.6739 58.7461
4 52.2032 49.4364 59.4151
4 52.1397 48.2411 58.6635
4 52.0664 48.2949 57.2819
5 54.1479 52.2417 53.282
6 56.249 53.0322 53.0743
4 51.9931 49.5182 56.5793
7 53.2077 52.5647 55.8796
7 54.3704 51.7979 55.9804
7 55.5648 52.3698 55.2675
8 55.2467 52.5184 53.7887
9 56.0177 53.2344 51.6787
10 52.1001 51.6127 59.2898
10 52.3306 49.41 60.4893
10 52.1266 47.2845 59.1549
10 52.1158 47.4268 56.644
10 51.9732 49.5358 55.496
11 52.8567 52.7496 54.8179
11 53.3468 53.6312 56.2622
11 54.1515 50.8271 55.4712
11 54.6312 51.6104 57.0478
11 55.8937 53.3265 55.7227
11 56.389 51.6679 55.3246
11 55.8094 52.2505 51.2505
11 55.1632 53.8642 51.494
11 56.8634 53.6834 51.1597
88
Atoms. Timestep: 6
1 91.4506 -62.8335 -70.0617
1 174.618 76.9138 179.642
1 136.351 -24.456 -25.5369
1 50.9229 -64.4544 138.474
1 43.2551 -77.2794 115.542
1 181.595 51.6218 110.447
1 184.128 28.5301 96.1366
1 173.299 8.43846 110.983
1 164.28 19.3885 134.289
1 147.493 116.122 -27.4372
1 155.114 128.943 -4.40239
1 118.916 -56.6978 -1.68646
1 140.34 -46.8669 12.1507
1 151.214 -26.7564 -2.6868
1 -36.485 -49.6846 2.87006
1 -24.2285 -43.9013 -20.5936
1 77.8716 -61.174 137.493
1 86.8886 -71.9402 114.378
1 65.6561 -81.8096 100.742
1 48.8607 78.9228 198.907
1 29.0391 60.4105 199.701
1 40.5024 35.863 199.663
1 115.719 175.367 96.51
1 93.4236 179.941 111.348
1 95.8311 166.047 134.547
1 159.031 91.4832 -27.3066
1 173.675 89.046 -4.66894
1 171.297 112.079 9.47504
1 22.7444 43.1927 -85.0412
1 27.9007 69.7793 -85.5411
1 54.8006 73.091 -86.2995
1 -20.3928 -66.4241 16.8731
1 1.84831 -71.0304 2.02282
1 -0.506904 -57.1037 -21.1654
1 -63.6695 17.4023 140.721
1 -78.318 19.8812 117.949
1 -75.9378 -3.19265 103.924
1 72.6719 65.7287 198.436
1 67.4326 39.0799 198.852
1 -44.961 155.744 101.343
1 -55.7655 135.735 116.05
1 131.877 158.606 110.538
1 119.611 152.863 134.042
1 17.5668 170.165 -24.2063
1 8.49213 180.823 -0.952391
1 29.7279 190.708 12.6328
1 46.4132 29.972 -85.5951
1 66.2719 48.4837 -86.3671
1 -88.6477 80.3637 17.1807
1 -77.9207 100.394 2.3404
1 -68.8465 89.7439 -20.8853
1 -52.2585 -7.1927 140.585
1 -59.8262 -19.8875 117.901
1 -23.6537 165.633 114.862
1 -21.2601 151.754 138.042
1 -74.0117 63.051 -20.4174
1 -86.2906 57.3047 3.08674
1 52.0265 186.168 -2.24046
1 44.4412 173.453 -24.994
1 -41.127 133.297 138.779
2 71.4699 41.2214 56.1788
3 52.5157 50.5333 57.2467
4 52.0653 50.6757 58.7463
4 52.2063 49.4342 59.4191
4 52.1332 48.2394 58.6673
4 52.0648 48.2961 57.2815
5 54.1502 52.2439 53.2792
6 56.2502 53.0329 53.0749
4 51.9789 49.5165 56.5798
7 53.4487 52.3844 55.8852
7 54.381 51.812 55.9855
7 55.5647 52.3747 55.273
8 55.2487 52.5176 53.7889
9 56.016 53.2324 51.6769
10 52.0921 51.6004 59.2883
10 52.3329 49.4069 60.4935
10 52.1216 47.2718 59.1606
10 52.1128 47.4172 56.655
10 51.981 49.5303 55.488
11 52.8597 52.7223 54.8202
11 53.3495 53.6111 56.2701
11 54.1552 50.8489 55.4751
11 54.6186 51.6046 57.0268
11 55.8978 53.303 55.7174
11 56.3925 51.6576 55.3309
11 55.8139 52.2544 51.2549
11 55.1366 53.8647 51.4925
11 56.8593 53.6865 51.1541
88
Atoms. Timestep: 7
1 95.4626 -72.4659 -80.1621
1 185.251 78.4068 189.421
1 147.986 -34.6163 -36.4678
1 51.1995 -79.9326 149.349
1 42.449 -94.569 123.178
1 199.182 51.4705 117.407
1 202.072 25.1161 101.076
1 189.713 2.18609 118.019
1 179.42 14.6814 144.618
1 160.4 124.276 -38.6107
1 169.098 138.908 -12.3234
1 128.087 -71.415 -9.24663
1 152.537 -60.1946 6.54364
1 164.948 -37.2431 -10.3901
1 -47.7075 -63.2198 -4.09441
1 -33.719 -56.6195 -30.8737
1 81.9559 -76.1887 148.232
1 92.2473 -88.4756 121.85
1 68.014 -99.7397 106.287
1 48.9855 82.363 217.504
1 26.363 61.2351 218.41
1 39.446 33.2188 218.366
1 124.663 191.271 101.498
1 99.2177 196.491 118.433
1 101.965 180.634 144.91
1 173.568 96.1562 -38.4631
1 190.282 93.3742 -12.6263
1 187.567 119.662 3.5158
1 19.2634 41.6169 -103.567
1 25.1486 71.9605 -104.137
1 55.8495 75.7399 -105.003
1 -29.3412 -82.3246 11.8872
1 -3.95746 -87.5815 -5.06141
1 -6.64567 -71.6871 -31.526
1 -78.2061 12.7248 151.884
1 -94.9244 15.554 125.895
1 -92.2077 -10.7801 109.888
1 76.1605 67.3048 216.966
1 70.1812 36.8906 217.44
1 -57.1557 169.065 106.967
1 -69.4868 146.23 123.753
1 143.103 172.141 117.509
1 129.104 165.587 144.334
1 13.4931 185.189 -34.955
1 3.13632 197.353 -8.41553
1 27.3732 208.636 7.08904
1 46.2769 26.5285 -104.199
1 68.9415 47.6557 -105.08
1 -106.575 83.7743 12.2352
1 -94.3322 106.635 -4.70167
1 -83.9759 94.4795 -31.2092
1 -65.1825 -15.3454 151.729
1 -73.8195 -29.8342 125.84
1 -32.8377 180.352 122.396
1 -30.1059 164.512 148.852
1 -89.8711 64.0154 -30.6753
1 -103.885 57.4571 -3.85015
1 52.8222 203.454 -9.88562
1 44.1652 188.942 -35.854
1 -52.7798 143.446 149.693
2 80.3553 36.2776 55.9834
3 53.2285 50.2127 57.1998
4 52.0577 50.6754 58.7409
4 52.2091 49.4328 59.4229
4 52.1266 48.2381 58.6716
4 52.0637 48.2973 57.279
5 54.1525 52.2458 53.2773
6 56.2516 53.0338 53.0755
4 51.9625 49.5149 56.5804
7 53.9647 52.0396 55.8809
7 54.3963 51.8216 56.0028
7 55.5647 52.3789 55.2774
8 55.2505 52.5172 53.7879
9 56.014 53.2303 51.6754
10 52.0832 51.5926 59.2851
10 52.3284 49.4033 60.4976
10 52.1221 47.262 59.1662
10 52.1025 47.4034 56.6716
10 51.9877 49.5238 55.4841
11 52.9033 52.6591 54.8438
11 53.3815 53.5373 56.2791
11 54.1623 50.8718 55.4861
11 54.6061 51.5991 57.0076
11 55.902 53.284 55.7112
11 56.3951 51.6506 55.3392
11 55.8181 52.258 51.2555
11 55.1129 53.8634 51.4944
11 56.8573 53.6878 51.1516
88
Atoms. Timestep: 8
1 98.8991 -79.1805 -86.734
1 192.984 78.9117 195.749
1 158.881 -44.1308 -46.7037
1 51.4586 -94.4268 159.533
1 41.6942 -110.759 130.33
1 215.651 51.3288 123.924
1 218.875 21.9191 105.701
1 205.083 -3.66881 124.608
1 193.597 10.2736 154.29
1 172.487 131.912 -49.0739
1 182.193 148.24 -19.7408
1 136.675 -85.1965 -16.3262
1 163.959 -72.6749 1.29303
1 177.808 -47.0632 -17.6036
1 -58.2165 -75.8945 -10.6161
1 -42.6062 -68.5292 -40.5003
1 85.7805 -90.2489 158.287
1 97.2654 -103.96 128.846
1 70.2221 -116.53 111.48
1 49.1024 85.5845 234.919
1 23.857 62.0074 235.929
1 38.4567 30.7427 235.88
1 133.039 206.163 106.17
1 104.643 211.989 125.067
1 107.709 194.293 154.614
1 187.18 100.532 -48.9103
1 205.832 97.4273 -20.0777
1 202.803 126.763 -2.0646
1 16.0038 40.1413 -120.915
1 22.5714 74.0029 -121.551
1 56.8318 78.2204 -122.517
1 -37.7208 -97.2142 7.21823
1 -9.39415 -103.08 -11.6953
1 -12.3942 -85.3435 -41.2279
1 -91.8185 8.34469 162.337
1 -110.475 11.502 133.336
1 -107.443 -17.8851 115.473
1 79.4273 68.7807 234.318
1 72.7551 34.8406 234.847
1 -68.5752 181.54 112.234
1 -82.3358 156.058 130.966
1 153.617 184.816 124.036
1 137.994 177.502 153.971
1 9.67846 199.258 -45.0204
1 -1.87901 212.833 -15.4042
1 25.1683 225.423 1.8977
1 46.1494 23.304 -121.62
1 71.4415 46.8803 -122.603
1 -123.363 86.9681 7.6041
1 -109.7 112.479 -11.2961
1 -98.1435 98.914 -40.8767
1 -77.2848 -22.9798 162.165
1 -86.9232 -39.1485 133.274
1 -41.4378 194.135 129.452
1 -38.3894 176.459 158.975
1 -104.722 64.9185 -40.2812
1 -120.361 57.5997 -10.3461
1 53.5673 219.64 -17.0448
1 43.9068 203.446 -46.0237
1 -63.6918 152.951 159.914
2 90.2151 30.7899 55.7655
3 54.4265 49.6341 57.1433
4 52.0656 50.668 58.7227
4 52.2108 49.4326 59.4274
4 52.1202 48.2368 58.6762
4 52.0613 48.2978 57.2746
5 54.1547 52.2475 53.2761
6 56.2531 53.035 53.0761
4 51.9564 49.5147 56.5821
7 54.8668 51.4633 55.8547
7 54.4256 51.8317 56.0385
7 55.5654 52.3819 55.2807
8 55.2522 52.5175 53.786
9 56.0116 53.2285 51.6745
10 52.0788 51.5902 59.2811
10 52.3164 49.3995 60.5017
10 52.1273 47.2571 59.1707
10 52.0858 47.3877 56.6919
10 51.9874 49.5111 55.4851
11 53.0674 52.5126 54.9065
11 53.5052 53.3361 56.2821
11 54.1796 50.8909 55.5058
11 54.5905 51.5962 57.002
11 55.9084 53.2748 55.7063
11 56.3952 51.6487 55.349
11 55.822 52.2593 51.2523
11 55.0961 53.8582 51.4999
11 56.8564 53.6877 51.1521
88
Atoms. Timestep: 9
1 101.937 -83.1422 -89.8716
1 198.054 78.364 198.711
1 169.095 -53.0506 -56.3
1 51.7015 -108.015 169.081
1 40.9865 -125.938 137.034
1 231.091 51.1959 130.034
1 234.629 18.922 110.037
1 219.493 -9.15783 130.786
1 206.888 6.14124 163.358
1 183.819 139.07 -58.8833
1 194.47 156.988 -26.6947
1 144.727 -98.1168 -22.9633
1 174.667 -84.3754 -3.62948
1 189.864 -56.2696 -24.3664
1 -68.0688 -87.7772 -16.7303
1 -50.9381 -79.6946 -49.5253
1 89.3661 -103.43 167.714
1 101.97 -118.476 135.405
1 72.2922 -132.271 116.348
1 49.2119 88.6047 251.245
1 21.5076 62.7313 252.354
1 37.5292 28.4213 252.3
1 140.891 220.125 110.549
1 109.73 226.518 131.287
1 113.095 207.099 163.711
1 199.942 104.634 -58.7047
1 220.411 101.227 -27.0636
1 217.087 133.42 -7.29628
1 12.9479 38.758 -137.179
1 20.1553 75.9178 -137.876
1 57.7527 80.5458 -138.937
1 -45.5767 -111.173 2.84104
1 -14.4911 -117.611 -17.9146
1 -17.7835 -98.1464 -50.3236
1 -104.58 4.23829 172.137
1 -125.054 7.70308 140.312
1 -121.727 -24.5462 120.709
1 82.49 70.1643 250.586
1 75.1682 32.9187 251.166
1 -79.2811 193.236 117.172
1 -94.3818 165.271 137.728
1 163.473 196.699 130.155
1 146.329 188.672 163.006
1 6.10216 212.448 -54.4568
1 -6.58094 227.345 -21.9562
1 23.1011 241.162 -2.96924
1 46.0298 20.2809 -137.952
1 73.7852 46.1534 -139.031
1 -139.102 89.9622 3.2624
1 -124.108 117.958 -17.4784
1 -111.426 103.071 -49.9401
1 -88.6309 -30.1372 171.949
1 -99.208 -47.8808 140.243
1 -49.5005 207.057 136.067
1 -46.1552 187.659 168.466
1 -118.645 65.7651 -49.2867
1 -135.807 57.7335 -16.436
1 54.2658 234.815 -23.7565
1 43.6645 217.044 -55.5579
1 -73.9219 161.862 169.496
2 100.471 25.0811 55.5379
3 56.2076 48.7253 57.08
4 52.1187 50.6411 58.6823
4 52.2098 49.4337 59.4325
4 52.1139 48.2358 58.6809
4 52.0555 48.2974 57.2694
5 54.1568 52.249 53.2756
6 56.2546 53.0363 53.0766
4 51.9925 49.512 56.5884
7 56.2924 50.5931 55.8032
7 54.4501 51.8396 56.0924
7 55.5651 52.3879 55.2833
8 55.2537 52.5181 53.7833
9 56.0086 53.2272 51.674
10 52.0788 51.5884 59.2776
10 52.2982 49.3967 60.5062
10 52.1355 47.2576 59.1737
10 52.0665 47.3719 56.713
10 51.9683 49.495 55.4906
11 53.4931 52.1905 55.0347
11 53.8744 52.9125 56.231
11 54.1453 50.9228 55.5337
11 54.5712 51.6026 57.0237
11 55.92 53.2778 55.7029
11 56.3924 51.6524 55.3591
11 55.8253 52.2575 51.2454
11 55.0882 53.8483 51.5083
11 56.8559 53.6867 51.1552
