  LAMMPS description
 
      88   atoms
      30   bonds
      53   angles
      53   dihedrals
 
      11   atom types
      13   bond types
      23   angle types
      23   dihedral types
 
       0  100.000000     xlo xhi
       0  100.000000     ylo yhi
       0  100.000000     zlo zhi
  0.0000000      0.0000000      0.0000000     xy xz yz

  Masses

       1   12.010000
       2   12.010000
       3   12.010000
       4   12.010000
       5   16.000000
       6   16.000000
       7   12.010000
       8   12.010000
       9   12.010000
      10   1.0100000
      11   1.0100000

   Atoms

       1       1       1    0.000000   50.993000   53.067000   57.215000
       2       1       1    0.000000   50.592045   52.393557   56.011357
       3       1       1    0.000000   49.506534   51.383165   56.053874
       4       1       1    0.000000   48.857794   51.078849   57.296316
       5       1       1    0.000000   49.271932   51.774525   58.539666
       6       1       1    0.000000   50.321172   52.751585   58.499612
       7       1       1    0.000000   50.190017   54.013028   59.269690
       8       1       1    0.000000   50.780202   55.107762   58.460593
       9       1       1    0.000000   51.276218   54.523103   57.190317
      10       1       1    0.000000   51.149909   55.257984   55.965104
      11       1       1    0.000000   50.735773   54.562309   54.721755
      12       1       1    0.000000   50.461578   53.154674   54.744584
      13       1       1    0.000000   49.295599   52.613848   54.003335
      14       1       1    0.000000   48.705413   51.519113   54.812433
      15       1       1    0.000000   47.282272   51.345644   54.854692
      16       1       1    0.000000   46.611223   51.030489   56.139858
      17       1       1    0.000000   47.385636   50.899372   57.340000
      18       1       1    0.000000   46.889916   51.484067   58.610296
      19       1       1    0.000000   48.055685   52.024960   59.351702
      20       1       1    0.000000   47.929038   53.244244   60.096386
      21       1       1    0.000000   49.014244   54.255118   60.054650
      22       1       1    0.000000   48.388209   55.600245   60.057643
      23       1       1    0.000000   48.958743   56.658527   59.275487
      24       1       1    0.000000   50.174940   56.408093   58.463427
      25       1       1    0.000000   50.044625   57.168444   57.196081
      26       1       1    0.000000   50.523830   56.603121   55.968067
      27       1       1    0.000000   49.722822   56.738822   54.726603
      28       1       1    0.000000   49.853785   55.477537   53.956363
      29       1       1    0.000000   48.726815   54.954695   53.239548
      30       1       1    0.000000   48.442974   53.498624   53.263465
      31       1       1    0.000000   46.970843   53.319119   53.307121
      32       1       1    0.000000   46.400309   52.260837   54.089278
      33       1       1    0.000000   45.184132   52.511273   54.901378
      34       1       1    0.000000   45.314477   51.750860   56.168699
      35       1       1    0.000000   44.835270   52.316116   57.396737
      36       1       1    0.000000   45.636316   52.180446   58.638199
      37       1       1    0.000000   45.505326   53.441722   59.408479
      38       1       1    0.000000   46.632295   53.964619   60.125242
      39       1       1    0.000000   46.916077   55.420714   60.101281
      40       1       1    0.000000   46.063464   56.305449   59.361324
      41       1       1    0.000000   46.653639   57.400163   58.552242
      42       1       1    0.000000   48.076784   57.573707   58.510043
      43       1       1    0.000000   48.747908   57.888866   57.224903
      44       1       1    0.000000   47.973550   58.020027   56.024737
      45       1       1    0.000000   48.469267   57.435284   54.754444
      46       1       1    0.000000   47.303494   56.894420   54.012995
      47       1       1    0.000000   47.430093   55.675109   53.268357
      48       1       1    0.000000   46.344841   54.664267   53.310137
      49       1       1    0.000000   45.169122   54.906365   54.095196
      50       1       1    0.000000   44.578948   53.811651   54.904279
      51       1       1    0.000000   44.083247   54.396367   56.174594
      52       1       1    0.000000   44.209231   53.661248   57.399735
      53       1       1    0.000000   44.623350   54.356913   58.643065
      54       1       1    0.000000   44.897702   55.764549   58.619880
      55       1       1    0.000000   44.767392   56.524971   57.352562
      56       1       1    0.000000   44.367055   55.852456   56.150608
      57       1       1    0.000000   45.038169   56.167650   54.865471
      58       1       1    0.000000   46.087295   57.144862   54.825060
      59       1       1    0.000000   46.501412   57.840529   56.068389
      60       1       1    0.000000   45.852624   57.535832   57.310757
      61       1       2   -0.030000   51.931449   52.049523   56.614637
      62       1       3    0.000000   52.015900   50.721099   57.327513
      63       1       4   -0.115000   52.109865   50.681032   58.723804
      64       1       4   -0.115000   52.187485   49.449473   59.385016
      65       1       4   -0.115000   52.172482   48.258091   58.649927
      66       1       4   -0.115000   52.080623   48.298166   57.253522
      67       1       5   -0.500000   54.135821   52.227852   53.307348
      68       1       6   -0.170000   56.244737   53.032400   53.072261
      69       1       4   -0.115000   52.002965   49.529719   56.592211
      70       1       7   -0.120000   53.130399   52.649057   55.879045
      71       1       7   -0.120000   54.370131   51.760447   55.986529
      72       1       7   -0.120000   55.561106   52.354507   55.233675
      73       1       8    0.700000   55.234202   52.530304   53.770108
      74       1       9   -0.180000   56.031419   53.231432   51.692750
      75       1      10    0.115000   52.122691   51.599917   59.291398
      76       1      10    0.115000   52.259936   49.418325   60.462279
      77       1      10    0.115000   52.233201   47.308060   59.160284
      78       1      10    0.115000   52.070686   47.378625   56.686956
      79       1      10    0.115000   51.933304   49.560168   55.514883
      80       1      11    0.060000   52.877063   52.795197   54.829044
      81       1      11    0.060000   53.352654   53.635270   56.286835
      82       1      11    0.060000   54.145762   50.771058   55.588074
      83       1      11    0.060000   54.633196   51.624659   57.035599
      84       1      11    0.060000   55.831214   53.322653   55.655538
      85       1      11    0.060000   56.432022   51.705875   55.328671
      86       1      11    0.060000   55.792373   52.285726   51.206433
      87       1      11    0.060000   55.205270   53.924348   51.533582
      88       1      11    0.060000   56.926657   53.644907   51.228243

   Bonds

       1       1      64      63
       2       1      65      64
       3       1      66      65
       4       1      69      66
       5       2      63      62
       6       2      69      62
       7       3      62      61
       8       4      75      63
       9       4      76      64
      10       4      77      65
      11       4      78      66
      12       4      79      69
      13       5      70      61
      14       6      71      70
      15       6      72      71
      16       7      61       1
      17       7      61       2
      18       8      73      72
      19       9      74      68
      20      10      80      70
      21      10      81      70
      22      10      82      71
      23      10      83      71
      24      10      84      72
      25      10      85      72
      26      11      86      74
      27      11      87      74
      28      11      88      74
      29      12      73      67
      30      13      73      68

   Angles

       1       1      63      64      65
       2       1      64      65      66
       3       1      65      66      69
       4       2      63      62      69
       5       3      62      63      64
       6       3      62      69      66
       7       4      61      62      63
       8       4      61      62      69
       9       5      64      63      75
      10       5      63      64      76
      11       5      65      64      76
      12       5      64      65      77
      13       5      66      65      77
      14       5      65      66      78
      15       5      69      66      78
      16       5      66      69      79
      17       6      62      63      75
      18       6      62      69      79
      19       7      61      70      71
      20       8      70      71      72
      21       9      62      61      70
      22      10       1      61      70
      23      10       2      61      70
      24      11      71      72      73
      25      12      61      70      80
      26      12      61      70      81
      27      13      71      70      80
      28      13      71      70      81
      29      13      70      71      82
      30      13      70      71      83
      31      13      72      71      82
      32      13      72      71      83
      33      13      71      72      84
      34      13      71      72      85
      35      14      73      72      84
      36      14      73      72      85
      37      15      68      74      86
      38      15      68      74      87
      39      15      68      74      88
      40      16      80      70      81
      41      16      82      71      83
      42      16      84      72      85
      43      17      86      74      87
      44      17      86      74      88
      45      17      87      74      88
      46      18       1      61      70
      47      18       2      61      70
      48      19       1      61      62
      49      19       2      61      62
      50      20      68      73      72
      51      21      67      73      72
      52      22      67      73      68
      53      23      73      68      74

   Dihedrals

       1       1      75      63      64      76
       2       1      76      64      65      77
       3       1      77      65      66      78
       4       1      78      66      69      79
       1       2      75      63      64      65
       2       2      63      64      65      77
       3       2      76      64      65      66
       4       2      64      65      66      78
       5       2      77      65      66      69
       6       2      65      66      69      79
       1       3      62      63      64      76
       2       3      78      66      69      62
       1       4      61      62      63      75
       2       4      61      62      69      79
       1       5      61      70      71      72
       1       6      61      70      71      72
       1       7      61      70      71      72
       1       8      80      70      71      72
       2       8      81      70      71      72
       3       8      70      71      72      84
       4       8      70      71      72      85
       1       9      61      70      71      82
       2       9      61      70      71      83
       1      10      80      70      71      82
       2      10      80      70      71      83
       3      10      81      70      71      82
       4      10      81      70      71      83
       5      10      82      71      72      84
       6      10      82      71      72      85
       7      10      83      71      72      84
       8      10      83      71      72      85
       1      11      71      72      73      67
       1      12      71      72      73      67
       1      13      71      72      73      67
       1      14      71      72      73      68
       1      15      84      72      73      68
       2      15      85      72      73      68
       1      16      74      68      73      72
       1      17      74      68      73      72
       1      18      74      68      73      67
       1      19      73      68      74      86
       2      19      73      68      74      87
       3      19      73      68      74      88
       1      20       1      61      70      71
       2      20       2      61      70      71
       1      21       1      61      70      71
       2      21       2      61      70      71
       1      22       1      61      70      71
       2      22       2      61      70      71
       1      23       1      61      70      80
       2      23       1      61      70      81
       3      23       2      61      70      80
       4      23       2      61      70      81

