
velocity 		all create ${T_run} ${seed} rot yes dist gaussian
velocity 		all create 300 ${seed} rot yes dist gaussian
velocity 		all create 300 11111 rot yes dist gaussian

#--------------------------------------------------------------------------
#nvtanneal
#--------------------------------------------------------------------------
fix 		1 all nvt temp 400 400 10.0
dump		1 all xyz 1 output.xyz
dump_modify 	1 sort id
compute 	myDis all msd
thermo_style  	custom step temp press etotal pe ke vol c_myDis[4]
thermo			1
timestep		${dt}
timestep		0.0010000000000000000208
#run			500000
run			1000
Memory usage per processor = 8.7846 Mbytes
Step Temp Press TotEng PotEng KinEng Volume myDis[4] 
       0          300    6549159.7    1018719.9    1018716.5    3.3736898      1000000            0 
       1 2.3790027e+09     28538577     26786771    33380.127     26753390      1000000    496.56015 
       2 2.1300945e+09     25437981     24089909     135649.4     23954260      1000000      1926.53 
       3 1.8756147e+09     22224078     21373952    281477.71     21092474      1000000    4111.1104 
       4 1.6659531e+09     19528852     19180516     445819.6     18734697      1000000    6918.4236 
       5 1.4564058e+09     16840047     16983763    605558.34     16378205      1000000    10212.912 
       6 1.2637323e+09     14377974     14954401    742931.02     14211470      1000000    13855.882 
       7 1.0983303e+09     12278132     13199429    848010.31     12351419      1000000    17740.093 
       8 9.5844322e+08     10523421     11695334     917033.2     10778300      1000000    21783.888 
       9 8.4072358e+08    9073463.7     10404595    950126.08    9454468.5      1000000    25923.615 
