  LAMMPS description
 
      60   atoms
       0   bonds
       0   angles
       0   dihedrals
 
       1   atom types
       0   bond types
       0   angle types
       0   dihedral types
 
       0  100.000000     xlo xhi
       0  100.000000     ylo yhi
       0  100.000000     zlo zhi
  0.0000000      0.0000000      0.0000000     xy xz yz

  Masses

       1   12.010000

   Atoms

       1       1       1    0.000000   96.444880   94.622760    1.025760
       2       1       1    0.000000   96.682596   95.143044    2.413499
       3       1       1    0.000000   95.988555   96.343048    2.872157
       4       1       1    0.000000   96.726270   97.377431    3.671438
       5       1       1    0.000000   98.137952   97.183661    3.990311
       6       1       1    0.000000   98.851408   95.950089    3.518822
       7       1       1    0.000000   98.133767   94.943855    2.741290
       8       1       1    0.000000    1.042980    0.170612    0.571333
       9       1       1    0.000000    0.689898   99.978066    2.017460
      10       1       1    0.000000    1.185137   98.625494    2.439726
      11       1       1    0.000000    0.248279   96.341082    3.132951
      12       1       1    0.000000    0.398138   97.816301    3.365959
      13       1       1    0.000000   99.093884   98.337044    3.895837
      14       1       1    0.000000   98.612121   99.652810    3.485061
      15       1       1    0.000000   99.421135    0.484639    2.532918
      16       1       1    0.000000   97.160950   99.851999    3.157269
      17       1       1    0.000000   96.231031   98.730003    3.249172
      18       1       1    0.000000   95.519591   95.316638    0.134445
      19       1       1    0.000000   94.806135   96.550210    0.605934
      20       1       1    0.000000   95.037383   97.056336    1.955908
      21       1       1    0.000000   95.187241   98.531555    2.188916
      22       1       1    0.000000   95.101773   99.460505    1.065609
      23       1       1    0.000000   94.864057   98.940221   99.677871
      24       1       1    0.000000   94.718277   97.505145   99.451204
      25       1       1    0.000000    0.117691    0.864490   99.680017
      26       1       1    0.000000   98.813437    1.385233    0.209894
      27       1       1    0.000000   97.769647    1.186785   99.149638
      28       1       1    0.000000   95.673072   99.772050   98.725727
      29       1       1    0.000000   96.410787    0.806432   99.525008
      30       1       1    0.000000   96.057705    0.613887    0.971135
      31       1       1    0.000000   97.073091    0.806934    2.002539
      32       1       1    0.000000   98.469963    1.197927    1.616668
      33       1       1    0.000000   97.749134   94.102016    0.495883
      34       1       1    0.000000   98.092607   94.289323   99.089109
      35       1       1    0.000000   99.489479   94.680316   98.703239
      36       1       1    0.000000    0.504866   94.873363   99.734643
      37       1       1    0.000000    0.151784   94.680817    1.180770
      38       1       1    0.000000   98.792924   94.300464    1.556139
      39       1       1    0.000000    1.756436   98.937040    0.099845
      40       1       1    0.000000    1.844294   97.982105    1.254575
      41       1       1    0.000000    0.889499   95.715200    1.980051
      42       1       1    0.000000    1.698513   96.547029    1.027907
      43       1       1    0.000000    1.460797   96.026745   99.640169
      44       1       1    0.000000    1.375330   96.955694   98.516862
      45       1       1    0.000000    1.525188   98.430914   98.749870
      46       1       1    0.000000    0.331540   96.757247   97.456606
      47       1       1    0.000000   99.401621   95.635251   97.548509
      48       1       1    0.000000   95.872673   95.509183   98.688318
      49       1       1    0.000000   97.141435   95.002611   98.172861
      50       1       1    0.000000   97.950450   95.834440   97.220717
      51       1       1    0.000000   97.468687   97.150206   96.809941
      52       1       1    0.000000   96.164433   97.670949   97.339818
      53       1       1    0.000000   95.377433   96.861755   98.266052
      54       1       1    0.000000   99.879974    0.344206   98.292279
      55       1       1    0.000000   98.428803    0.543395   97.964487
      56       1       1    0.000000   96.314291   99.146168   97.572826
      57       1       1    0.000000   97.711163   99.537160   97.186956
      58       1       1    0.000000   98.424618   98.303588   96.715467
      59       1       1    0.000000   99.836300   98.109819   97.034339
      60       1       1    0.000000    0.574015   99.144202   97.833621

   Bonds


   Angles


   Dihedrals


