	
2048 atoms
1 atom types	

0.0 12.4471 xlo xhi
0.0 12.4471 ylo yhi
0.0 12.4471 zlo zhi

#-15.16 0.0 0.0 xy xz yz

Masses

1 1

Atoms				

1	1	0	0	0
2	1	0.77794	0.77794	0
3	1	0.77794	0	0.77794
4	1	0	0.77794	0.77794
5	1	0	0	1.5559
6	1	0.77794	0.77794	1.5559
7	1	0.77794	0	2.3338
8	1	0	0.77794	2.3338
9	1	0	0	3.1118
10	1	0.77794	0.77794	3.1118
11	1	0.77794	0	3.8897
12	1	0	0.77794	3.8897
13	1	0	0	4.6676
14	1	0.77794	0.77794	4.6676
15	1	0.77794	0	5.4456
16	1	0	0.77794	5.4456
17	1	0	0	6.2235
18	1	0.77794	0.77794	6.2235
19	1	0.77794	0	7.0015
20	1	0	0.77794	7.0015
21	1	0	0	7.7794
22	1	0.77794	0.77794	7.7794
23	1	0.77794	0	8.5574
24	1	0	0.77794	8.5574
25	1	0	0	9.3353
26	1	0.77794	0.77794	9.3353
27	1	0.77794	0	10.113
28	1	0	0.77794	10.113
29	1	0	0	10.891
30	1	0.77794	0.77794	10.891
31	1	0.77794	0	11.669
32	1	0	0.77794	11.669
33	1	0	1.5559	0
34	1	0.77794	2.3338	0
35	1	0.77794	1.5559	0.77794
36	1	0	2.3338	0.77794
37	1	0	1.5559	1.5559
38	1	0.77794	2.3338	1.5559
39	1	0.77794	1.5559	2.3338
40	1	0	2.3338	2.3338
41	1	0	1.5559	3.1118
42	1	0.77794	2.3338	3.1118
43	1	0.77794	1.5559	3.8897
44	1	0	2.3338	3.8897
45	1	0	1.5559	4.6676
46	1	0.77794	2.3338	4.6676
47	1	0.77794	1.5559	5.4456
48	1	0	2.3338	5.4456
49	1	0	1.5559	6.2235
50	1	0.77794	2.3338	6.2235
51	1	0.77794	1.5559	7.0015
52	1	0	2.3338	7.0015
53	1	0	1.5559	7.7794
54	1	0.77794	2.3338	7.7794
55	1	0.77794	1.5559	8.5574
56	1	0	2.3338	8.5574
57	1	0	1.5559	9.3353
58	1	0.77794	2.3338	9.3353
59	1	0.77794	1.5559	10.113
60	1	0	2.3338	10.113
61	1	0	1.5559	10.891
62	1	0.77794	2.3338	10.891
63	1	0.77794	1.5559	11.669
64	1	0	2.3338	11.669
65	1	0	3.1118	0
66	1	0.77794	3.8897	0
67	1	0.77794	3.1118	0.77794
68	1	0	3.8897	0.77794
69	1	0	3.1118	1.5559
70	1	0.77794	3.8897	1.5559
71	1	0.77794	3.1118	2.3338
72	1	0	3.8897	2.3338
73	1	0	3.1118	3.1118
74	1	0.77794	3.8897	3.1118
75	1	0.77794	3.1118	3.8897
76	1	0	3.8897	3.8897
77	1	0	3.1118	4.6676
78	1	0.77794	3.8897	4.6676
79	1	0.77794	3.1118	5.4456
80	1	0	3.8897	5.4456
81	1	0	3.1118	6.2235
82	1	0.77794	3.8897	6.2235
83	1	0.77794	3.1118	7.0015
84	1	0	3.8897	7.0015
85	1	0	3.1118	7.7794
86	1	0.77794	3.8897	7.7794
87	1	0.77794	3.1118	8.5574
88	1	0	3.8897	8.5574
89	1	0	3.1118	9.3353
90	1	0.77794	3.8897	9.3353
91	1	0.77794	3.1118	10.113
92	1	0	3.8897	10.113
93	1	0	3.1118	10.891
94	1	0.77794	3.8897	10.891
95	1	0.77794	3.1118	11.669
96	1	0	3.8897	11.669
97	1	0	4.6676	0
98	1	0.77794	5.4456	0
99	1	0.77794	4.6676	0.77794
100	1	0	5.4456	0.77794
101	1	0	4.6676	1.5559
102	1	0.77794	5.4456	1.5559
103	1	0.77794	4.6676	2.3338
104	1	0	5.4456	2.3338
105	1	0	4.6676	3.1118
106	1	0.77794	5.4456	3.1118
107	1	0.77794	4.6676	3.8897
108	1	0	5.4456	3.8897
109	1	0	4.6676	4.6676
110	1	0.77794	5.4456	4.6676
111	1	0.77794	4.6676	5.4456
112	1	0	5.4456	5.4456
113	1	0	4.6676	6.2235
114	1	0.77794	5.4456	6.2235
115	1	0.77794	4.6676	7.0015
116	1	0	5.4456	7.0015
117	1	0	4.6676	7.7794
118	1	0.77794	5.4456	7.7794
119	1	0.77794	4.6676	8.5574
120	1	0	5.4456	8.5574
121	1	0	4.6676	9.3353
122	1	0.77794	5.4456	9.3353
123	1	0.77794	4.6676	10.113
124	1	0	5.4456	10.113
125	1	0	4.6676	10.891
126	1	0.77794	5.4456	10.891
127	1	0.77794	4.6676	11.669
128	1	0	5.4456	11.669
129	1	0	6.2235	0
130	1	0.77794	7.0015	0
131	1	0.77794	6.2235	0.77794
132	1	0	7.0015	0.77794
133	1	0	6.2235	1.5559
134	1	0.77794	7.0015	1.5559
135	1	0.77794	6.2235	2.3338
136	1	0	7.0015	2.3338
137	1	0	6.2235	3.1118
138	1	0.77794	7.0015	3.1118
139	1	0.77794	6.2235	3.8897
140	1	0	7.0015	3.8897
141	1	0	6.2235	4.6676
142	1	0.77794	7.0015	4.6676
143	1	0.77794	6.2235	5.4456
144	1	0	7.0015	5.4456
145	1	0	6.2235	6.2235
146	1	0.77794	7.0015	6.2235
147	1	0.77794	6.2235	7.0015
148	1	0	7.0015	7.0015
149	1	0	6.2235	7.7794
150	1	0.77794	7.0015	7.7794
151	1	0.77794	6.2235	8.5574
152	1	0	7.0015	8.5574
153	1	0	6.2235	9.3353
154	1	0.77794	7.0015	9.3353
155	1	0.77794	6.2235	10.113
156	1	0	7.0015	10.113
157	1	0	6.2235	10.891
158	1	0.77794	7.0015	10.891
159	1	0.77794	6.2235	11.669
160	1	0	7.0015	11.669
161	1	0	7.7794	0
162	1	0.77794	8.5574	0
163	1	0.77794	7.7794	0.77794
164	1	0	8.5574	0.77794
165	1	0	7.7794	1.5559
166	1	0.77794	8.5574	1.5559
167	1	0.77794	7.7794	2.3338
168	1	0	8.5574	2.3338
169	1	0	7.7794	3.1118
170	1	0.77794	8.5574	3.1118
171	1	0.77794	7.7794	3.8897
172	1	0	8.5574	3.8897
173	1	0	7.7794	4.6676
174	1	0.77794	8.5574	4.6676
175	1	0.77794	7.7794	5.4456
176	1	0	8.5574	5.4456
177	1	0	7.7794	6.2235
178	1	0.77794	8.5574	6.2235
179	1	0.77794	7.7794	7.0015
180	1	0	8.5574	7.0015
181	1	0	7.7794	7.7794
182	1	0.77794	8.5574	7.7794
183	1	0.77794	7.7794	8.5574
184	1	0	8.5574	8.5574
185	1	0	7.7794	9.3353
186	1	0.77794	8.5574	9.3353
187	1	0.77794	7.7794	10.113
188	1	0	8.5574	10.113
189	1	0	7.7794	10.891
190	1	0.77794	8.5574	10.891
191	1	0.77794	7.7794	11.669
192	1	0	8.5574	11.669
193	1	0	9.3353	0
194	1	0.77794	10.113	0
195	1	0.77794	9.3353	0.77794
196	1	0	10.113	0.77794
197	1	0	9.3353	1.5559
198	1	0.77794	10.113	1.5559
199	1	0.77794	9.3353	2.3338
200	1	0	10.113	2.3338
201	1	0	9.3353	3.1118
202	1	0.77794	10.113	3.1118
203	1	0.77794	9.3353	3.8897
204	1	0	10.113	3.8897
205	1	0	9.3353	4.6676
206	1	0.77794	10.113	4.6676
207	1	0.77794	9.3353	5.4456
208	1	0	10.113	5.4456
209	1	0	9.3353	6.2235
210	1	0.77794	10.113	6.2235
211	1	0.77794	9.3353	7.0015
212	1	0	10.113	7.0015
213	1	0	9.3353	7.7794
214	1	0.77794	10.113	7.7794
215	1	0.77794	9.3353	8.5574
216	1	0	10.113	8.5574
217	1	0	9.3353	9.3353
218	1	0.77794	10.113	9.3353
219	1	0.77794	9.3353	10.113
220	1	0	10.113	10.113
221	1	0	9.3353	10.891
222	1	0.77794	10.113	10.891
223	1	0.77794	9.3353	11.669
224	1	0	10.113	11.669
225	1	0	10.891	0
226	1	0.77794	11.669	0
227	1	0.77794	10.891	0.77794
228	1	0	11.669	0.77794
229	1	0	10.891	1.5559
230	1	0.77794	11.669	1.5559
231	1	0.77794	10.891	2.3338
232	1	0	11.669	2.3338
233	1	0	10.891	3.1118
234	1	0.77794	11.669	3.1118
235	1	0.77794	10.891	3.8897
236	1	0	11.669	3.8897
237	1	0	10.891	4.6676
238	1	0.77794	11.669	4.6676
239	1	0.77794	10.891	5.4456
240	1	0	11.669	5.4456
241	1	0	10.891	6.2235
242	1	0.77794	11.669	6.2235
243	1	0.77794	10.891	7.0015
244	1	0	11.669	7.0015
245	1	0	10.891	7.7794
246	1	0.77794	11.669	7.7794
247	1	0.77794	10.891	8.5574
248	1	0	11.669	8.5574
249	1	0	10.891	9.3353
250	1	0.77794	11.669	9.3353
251	1	0.77794	10.891	10.113
252	1	0	11.669	10.113
253	1	0	10.891	10.891
254	1	0.77794	11.669	10.891
255	1	0.77794	10.891	11.669
256	1	0	11.669	11.669
257	1	1.5559	0	0
258	1	2.3338	0.77794	0
259	1	2.3338	0	0.77794
260	1	1.5559	0.77794	0.77794
261	1	1.5559	0	1.5559
262	1	2.3338	0.77794	1.5559
263	1	2.3338	0	2.3338
264	1	1.5559	0.77794	2.3338
265	1	1.5559	0	3.1118
266	1	2.3338	0.77794	3.1118
267	1	2.3338	0	3.8897
268	1	1.5559	0.77794	3.8897
269	1	1.5559	0	4.6676
270	1	2.3338	0.77794	4.6676
271	1	2.3338	0	5.4456
272	1	1.5559	0.77794	5.4456
273	1	1.5559	0	6.2235
274	1	2.3338	0.77794	6.2235
275	1	2.3338	0	7.0015
276	1	1.5559	0.77794	7.0015
277	1	1.5559	0	7.7794
278	1	2.3338	0.77794	7.7794
279	1	2.3338	0	8.5574
280	1	1.5559	0.77794	8.5574
281	1	1.5559	0	9.3353
282	1	2.3338	0.77794	9.3353
283	1	2.3338	0	10.113
284	1	1.5559	0.77794	10.113
285	1	1.5559	0	10.891
286	1	2.3338	0.77794	10.891
287	1	2.3338	0	11.669
288	1	1.5559	0.77794	11.669
289	1	1.5559	1.5559	0
290	1	2.3338	2.3338	0
291	1	2.3338	1.5559	0.77794
292	1	1.5559	2.3338	0.77794
293	1	1.5559	1.5559	1.5559
294	1	2.3338	2.3338	1.5559
295	1	2.3338	1.5559	2.3338
296	1	1.5559	2.3338	2.3338
297	1	1.5559	1.5559	3.1118
298	1	2.3338	2.3338	3.1118
299	1	2.3338	1.5559	3.8897
300	1	1.5559	2.3338	3.8897
301	1	1.5559	1.5559	4.6676
302	1	2.3338	2.3338	4.6676
303	1	2.3338	1.5559	5.4456
304	1	1.5559	2.3338	5.4456
305	1	1.5559	1.5559	6.2235
306	1	2.3338	2.3338	6.2235
307	1	2.3338	1.5559	7.0015
308	1	1.5559	2.3338	7.0015
309	1	1.5559	1.5559	7.7794
310	1	2.3338	2.3338	7.7794
311	1	2.3338	1.5559	8.5574
312	1	1.5559	2.3338	8.5574
313	1	1.5559	1.5559	9.3353
314	1	2.3338	2.3338	9.3353
315	1	2.3338	1.5559	10.113
316	1	1.5559	2.3338	10.113
317	1	1.5559	1.5559	10.891
318	1	2.3338	2.3338	10.891
319	1	2.3338	1.5559	11.669
320	1	1.5559	2.3338	11.669
321	1	1.5559	3.1118	0
322	1	2.3338	3.8897	0
323	1	2.3338	3.1118	0.77794
324	1	1.5559	3.8897	0.77794
325	1	1.5559	3.1118	1.5559
326	1	2.3338	3.8897	1.5559
327	1	2.3338	3.1118	2.3338
328	1	1.5559	3.8897	2.3338
329	1	1.5559	3.1118	3.1118
330	1	2.3338	3.8897	3.1118
331	1	2.3338	3.1118	3.8897
332	1	1.5559	3.8897	3.8897
333	1	1.5559	3.1118	4.6676
334	1	2.3338	3.8897	4.6676
335	1	2.3338	3.1118	5.4456
336	1	1.5559	3.8897	5.4456
337	1	1.5559	3.1118	6.2235
338	1	2.3338	3.8897	6.2235
339	1	2.3338	3.1118	7.0015
340	1	1.5559	3.8897	7.0015
341	1	1.5559	3.1118	7.7794
342	1	2.3338	3.8897	7.7794
343	1	2.3338	3.1118	8.5574
344	1	1.5559	3.8897	8.5574
345	1	1.5559	3.1118	9.3353
346	1	2.3338	3.8897	9.3353
347	1	2.3338	3.1118	10.113
348	1	1.5559	3.8897	10.113
349	1	1.5559	3.1118	10.891
350	1	2.3338	3.8897	10.891
351	1	2.3338	3.1118	11.669
352	1	1.5559	3.8897	11.669
353	1	1.5559	4.6676	0
354	1	2.3338	5.4456	0
355	1	2.3338	4.6676	0.77794
356	1	1.5559	5.4456	0.77794
357	1	1.5559	4.6676	1.5559
358	1	2.3338	5.4456	1.5559
359	1	2.3338	4.6676	2.3338
360	1	1.5559	5.4456	2.3338
361	1	1.5559	4.6676	3.1118
362	1	2.3338	5.4456	3.1118
363	1	2.3338	4.6676	3.8897
364	1	1.5559	5.4456	3.8897
365	1	1.5559	4.6676	4.6676
366	1	2.3338	5.4456	4.6676
367	1	2.3338	4.6676	5.4456
368	1	1.5559	5.4456	5.4456
369	1	1.5559	4.6676	6.2235
370	1	2.3338	5.4456	6.2235
371	1	2.3338	4.6676	7.0015
372	1	1.5559	5.4456	7.0015
373	1	1.5559	4.6676	7.7794
374	1	2.3338	5.4456	7.7794
375	1	2.3338	4.6676	8.5574
376	1	1.5559	5.4456	8.5574
377	1	1.5559	4.6676	9.3353
378	1	2.3338	5.4456	9.3353
379	1	2.3338	4.6676	10.113
380	1	1.5559	5.4456	10.113
381	1	1.5559	4.6676	10.891
382	1	2.3338	5.4456	10.891
383	1	2.3338	4.6676	11.669
384	1	1.5559	5.4456	11.669
385	1	1.5559	6.2235	0
386	1	2.3338	7.0015	0
387	1	2.3338	6.2235	0.77794
388	1	1.5559	7.0015	0.77794
389	1	1.5559	6.2235	1.5559
390	1	2.3338	7.0015	1.5559
391	1	2.3338	6.2235	2.3338
392	1	1.5559	7.0015	2.3338
393	1	1.5559	6.2235	3.1118
394	1	2.3338	7.0015	3.1118
395	1	2.3338	6.2235	3.8897
396	1	1.5559	7.0015	3.8897
397	1	1.5559	6.2235	4.6676
398	1	2.3338	7.0015	4.6676
399	1	2.3338	6.2235	5.4456
400	1	1.5559	7.0015	5.4456
401	1	1.5559	6.2235	6.2235
402	1	2.3338	7.0015	6.2235
403	1	2.3338	6.2235	7.0015
404	1	1.5559	7.0015	7.0015
405	1	1.5559	6.2235	7.7794
406	1	2.3338	7.0015	7.7794
407	1	2.3338	6.2235	8.5574
408	1	1.5559	7.0015	8.5574
409	1	1.5559	6.2235	9.3353
410	1	2.3338	7.0015	9.3353
411	1	2.3338	6.2235	10.113
412	1	1.5559	7.0015	10.113
413	1	1.5559	6.2235	10.891
414	1	2.3338	7.0015	10.891
415	1	2.3338	6.2235	11.669
416	1	1.5559	7.0015	11.669
417	1	1.5559	7.7794	0
418	1	2.3338	8.5574	0
419	1	2.3338	7.7794	0.77794
420	1	1.5559	8.5574	0.77794
421	1	1.5559	7.7794	1.5559
422	1	2.3338	8.5574	1.5559
423	1	2.3338	7.7794	2.3338
424	1	1.5559	8.5574	2.3338
425	1	1.5559	7.7794	3.1118
426	1	2.3338	8.5574	3.1118
427	1	2.3338	7.7794	3.8897
428	1	1.5559	8.5574	3.8897
429	1	1.5559	7.7794	4.6676
430	1	2.3338	8.5574	4.6676
431	1	2.3338	7.7794	5.4456
432	1	1.5559	8.5574	5.4456
433	1	1.5559	7.7794	6.2235
434	1	2.3338	8.5574	6.2235
435	1	2.3338	7.7794	7.0015
436	1	1.5559	8.5574	7.0015
437	1	1.5559	7.7794	7.7794
438	1	2.3338	8.5574	7.7794
439	1	2.3338	7.7794	8.5574
440	1	1.5559	8.5574	8.5574
441	1	1.5559	7.7794	9.3353
442	1	2.3338	8.5574	9.3353
443	1	2.3338	7.7794	10.113
444	1	1.5559	8.5574	10.113
445	1	1.5559	7.7794	10.891
446	1	2.3338	8.5574	10.891
447	1	2.3338	7.7794	11.669
448	1	1.5559	8.5574	11.669
449	1	1.5559	9.3353	0
450	1	2.3338	10.113	0
451	1	2.3338	9.3353	0.77794
452	1	1.5559	10.113	0.77794
453	1	1.5559	9.3353	1.5559
454	1	2.3338	10.113	1.5559
455	1	2.3338	9.3353	2.3338
456	1	1.5559	10.113	2.3338
457	1	1.5559	9.3353	3.1118
458	1	2.3338	10.113	3.1118
459	1	2.3338	9.3353	3.8897
460	1	1.5559	10.113	3.8897
461	1	1.5559	9.3353	4.6676
462	1	2.3338	10.113	4.6676
463	1	2.3338	9.3353	5.4456
464	1	1.5559	10.113	5.4456
465	1	1.5559	9.3353	6.2235
466	1	2.3338	10.113	6.2235
467	1	2.3338	9.3353	7.0015
468	1	1.5559	10.113	7.0015
469	1	1.5559	9.3353	7.7794
470	1	2.3338	10.113	7.7794
471	1	2.3338	9.3353	8.5574
472	1	1.5559	10.113	8.5574
473	1	1.5559	9.3353	9.3353
474	1	2.3338	10.113	9.3353
475	1	2.3338	9.3353	10.113
476	1	1.5559	10.113	10.113
477	1	1.5559	9.3353	10.891
478	1	2.3338	10.113	10.891
479	1	2.3338	9.3353	11.669
480	1	1.5559	10.113	11.669
481	1	1.5559	10.891	0
482	1	2.3338	11.669	0
483	1	2.3338	10.891	0.77794
484	1	1.5559	11.669	0.77794
485	1	1.5559	10.891	1.5559
486	1	2.3338	11.669	1.5559
487	1	2.3338	10.891	2.3338
488	1	1.5559	11.669	2.3338
489	1	1.5559	10.891	3.1118
490	1	2.3338	11.669	3.1118
491	1	2.3338	10.891	3.8897
492	1	1.5559	11.669	3.8897
493	1	1.5559	10.891	4.6676
494	1	2.3338	11.669	4.6676
495	1	2.3338	10.891	5.4456
496	1	1.5559	11.669	5.4456
497	1	1.5559	10.891	6.2235
498	1	2.3338	11.669	6.2235
499	1	2.3338	10.891	7.0015
500	1	1.5559	11.669	7.0015
501	1	1.5559	10.891	7.7794
502	1	2.3338	11.669	7.7794
503	1	2.3338	10.891	8.5574
504	1	1.5559	11.669	8.5574
505	1	1.5559	10.891	9.3353
506	1	2.3338	11.669	9.3353
507	1	2.3338	10.891	10.113
508	1	1.5559	11.669	10.113
509	1	1.5559	10.891	10.891
510	1	2.3338	11.669	10.891
511	1	2.3338	10.891	11.669
512	1	1.5559	11.669	11.669
513	1	3.1118	0	0
514	1	3.8897	0.77794	0
515	1	3.8897	0	0.77794
516	1	3.1118	0.77794	0.77794
517	1	3.1118	0	1.5559
518	1	3.8897	0.77794	1.5559
519	1	3.8897	0	2.3338
520	1	3.1118	0.77794	2.3338
521	1	3.1118	0	3.1118
522	1	3.8897	0.77794	3.1118
523	1	3.8897	0	3.8897
524	1	3.1118	0.77794	3.8897
525	1	3.1118	0	4.6676
526	1	3.8897	0.77794	4.6676
527	1	3.8897	0	5.4456
528	1	3.1118	0.77794	5.4456
529	1	3.1118	0	6.2235
530	1	3.8897	0.77794	6.2235
531	1	3.8897	0	7.0015
532	1	3.1118	0.77794	7.0015
533	1	3.1118	0	7.7794
534	1	3.8897	0.77794	7.7794
535	1	3.8897	0	8.5574
536	1	3.1118	0.77794	8.5574
537	1	3.1118	0	9.3353
538	1	3.8897	0.77794	9.3353
539	1	3.8897	0	10.113
540	1	3.1118	0.77794	10.113
541	1	3.1118	0	10.891
542	1	3.8897	0.77794	10.891
543	1	3.8897	0	11.669
544	1	3.1118	0.77794	11.669
545	1	3.1118	1.5559	0
546	1	3.8897	2.3338	0
547	1	3.8897	1.5559	0.77794
548	1	3.1118	2.3338	0.77794
549	1	3.1118	1.5559	1.5559
550	1	3.8897	2.3338	1.5559
551	1	3.8897	1.5559	2.3338
552	1	3.1118	2.3338	2.3338
553	1	3.1118	1.5559	3.1118
554	1	3.8897	2.3338	3.1118
555	1	3.8897	1.5559	3.8897
556	1	3.1118	2.3338	3.8897
557	1	3.1118	1.5559	4.6676
558	1	3.8897	2.3338	4.6676
559	1	3.8897	1.5559	5.4456
560	1	3.1118	2.3338	5.4456
561	1	3.1118	1.5559	6.2235
562	1	3.8897	2.3338	6.2235
563	1	3.8897	1.5559	7.0015
564	1	3.1118	2.3338	7.0015
565	1	3.1118	1.5559	7.7794
566	1	3.8897	2.3338	7.7794
567	1	3.8897	1.5559	8.5574
568	1	3.1118	2.3338	8.5574
569	1	3.1118	1.5559	9.3353
570	1	3.8897	2.3338	9.3353
571	1	3.8897	1.5559	10.113
572	1	3.1118	2.3338	10.113
573	1	3.1118	1.5559	10.891
574	1	3.8897	2.3338	10.891
575	1	3.8897	1.5559	11.669
576	1	3.1118	2.3338	11.669
577	1	3.1118	3.1118	0
578	1	3.8897	3.8897	0
579	1	3.8897	3.1118	0.77794
580	1	3.1118	3.8897	0.77794
581	1	3.1118	3.1118	1.5559
582	1	3.8897	3.8897	1.5559
583	1	3.8897	3.1118	2.3338
584	1	3.1118	3.8897	2.3338
585	1	3.1118	3.1118	3.1118
586	1	3.8897	3.8897	3.1118
587	1	3.8897	3.1118	3.8897
588	1	3.1118	3.8897	3.8897
589	1	3.1118	3.1118	4.6676
590	1	3.8897	3.8897	4.6676
591	1	3.8897	3.1118	5.4456
592	1	3.1118	3.8897	5.4456
593	1	3.1118	3.1118	6.2235
594	1	3.8897	3.8897	6.2235
595	1	3.8897	3.1118	7.0015
596	1	3.1118	3.8897	7.0015
597	1	3.1118	3.1118	7.7794
598	1	3.8897	3.8897	7.7794
599	1	3.8897	3.1118	8.5574
600	1	3.1118	3.8897	8.5574
601	1	3.1118	3.1118	9.3353
602	1	3.8897	3.8897	9.3353
603	1	3.8897	3.1118	10.113
604	1	3.1118	3.8897	10.113
605	1	3.1118	3.1118	10.891
606	1	3.8897	3.8897	10.891
607	1	3.8897	3.1118	11.669
608	1	3.1118	3.8897	11.669
609	1	3.1118	4.6676	0
610	1	3.8897	5.4456	0
611	1	3.8897	4.6676	0.77794
612	1	3.1118	5.4456	0.77794
613	1	3.1118	4.6676	1.5559
614	1	3.8897	5.4456	1.5559
615	1	3.8897	4.6676	2.3338
616	1	3.1118	5.4456	2.3338
617	1	3.1118	4.6676	3.1118
618	1	3.8897	5.4456	3.1118
619	1	3.8897	4.6676	3.8897
620	1	3.1118	5.4456	3.8897
621	1	3.1118	4.6676	4.6676
622	1	3.8897	5.4456	4.6676
623	1	3.8897	4.6676	5.4456
624	1	3.1118	5.4456	5.4456
625	1	3.1118	4.6676	6.2235
626	1	3.8897	5.4456	6.2235
627	1	3.8897	4.6676	7.0015
628	1	3.1118	5.4456	7.0015
629	1	3.1118	4.6676	7.7794
630	1	3.8897	5.4456	7.7794
631	1	3.8897	4.6676	8.5574
632	1	3.1118	5.4456	8.5574
633	1	3.1118	4.6676	9.3353
634	1	3.8897	5.4456	9.3353
635	1	3.8897	4.6676	10.113
636	1	3.1118	5.4456	10.113
637	1	3.1118	4.6676	10.891
638	1	3.8897	5.4456	10.891
639	1	3.8897	4.6676	11.669
640	1	3.1118	5.4456	11.669
641	1	3.1118	6.2235	0
642	1	3.8897	7.0015	0
643	1	3.8897	6.2235	0.77794
644	1	3.1118	7.0015	0.77794
645	1	3.1118	6.2235	1.5559
646	1	3.8897	7.0015	1.5559
647	1	3.8897	6.2235	2.3338
648	1	3.1118	7.0015	2.3338
649	1	3.1118	6.2235	3.1118
650	1	3.8897	7.0015	3.1118
651	1	3.8897	6.2235	3.8897
652	1	3.1118	7.0015	3.8897
653	1	3.1118	6.2235	4.6676
654	1	3.8897	7.0015	4.6676
655	1	3.8897	6.2235	5.4456
656	1	3.1118	7.0015	5.4456
657	1	3.1118	6.2235	6.2235
658	1	3.8897	7.0015	6.2235
659	1	3.8897	6.2235	7.0015
660	1	3.1118	7.0015	7.0015
661	1	3.1118	6.2235	7.7794
662	1	3.8897	7.0015	7.7794
663	1	3.8897	6.2235	8.5574
664	1	3.1118	7.0015	8.5574
665	1	3.1118	6.2235	9.3353
666	1	3.8897	7.0015	9.3353
667	1	3.8897	6.2235	10.113
668	1	3.1118	7.0015	10.113
669	1	3.1118	6.2235	10.891
670	1	3.8897	7.0015	10.891
671	1	3.8897	6.2235	11.669
672	1	3.1118	7.0015	11.669
673	1	3.1118	7.7794	0
674	1	3.8897	8.5574	0
675	1	3.8897	7.7794	0.77794
676	1	3.1118	8.5574	0.77794
677	1	3.1118	7.7794	1.5559
678	1	3.8897	8.5574	1.5559
679	1	3.8897	7.7794	2.3338
680	1	3.1118	8.5574	2.3338
681	1	3.1118	7.7794	3.1118
682	1	3.8897	8.5574	3.1118
683	1	3.8897	7.7794	3.8897
684	1	3.1118	8.5574	3.8897
685	1	3.1118	7.7794	4.6676
686	1	3.8897	8.5574	4.6676
687	1	3.8897	7.7794	5.4456
688	1	3.1118	8.5574	5.4456
689	1	3.1118	7.7794	6.2235
690	1	3.8897	8.5574	6.2235
691	1	3.8897	7.7794	7.0015
692	1	3.1118	8.5574	7.0015
693	1	3.1118	7.7794	7.7794
694	1	3.8897	8.5574	7.7794
695	1	3.8897	7.7794	8.5574
696	1	3.1118	8.5574	8.5574
697	1	3.1118	7.7794	9.3353
698	1	3.8897	8.5574	9.3353
699	1	3.8897	7.7794	10.113
700	1	3.1118	8.5574	10.113
701	1	3.1118	7.7794	10.891
702	1	3.8897	8.5574	10.891
703	1	3.8897	7.7794	11.669
704	1	3.1118	8.5574	11.669
705	1	3.1118	9.3353	0
706	1	3.8897	10.113	0
707	1	3.8897	9.3353	0.77794
708	1	3.1118	10.113	0.77794
709	1	3.1118	9.3353	1.5559
710	1	3.8897	10.113	1.5559
711	1	3.8897	9.3353	2.3338
712	1	3.1118	10.113	2.3338
713	1	3.1118	9.3353	3.1118
714	1	3.8897	10.113	3.1118
715	1	3.8897	9.3353	3.8897
716	1	3.1118	10.113	3.8897
717	1	3.1118	9.3353	4.6676
718	1	3.8897	10.113	4.6676
719	1	3.8897	9.3353	5.4456
720	1	3.1118	10.113	5.4456
721	1	3.1118	9.3353	6.2235
722	1	3.8897	10.113	6.2235
723	1	3.8897	9.3353	7.0015
724	1	3.1118	10.113	7.0015
725	1	3.1118	9.3353	7.7794
726	1	3.8897	10.113	7.7794
727	1	3.8897	9.3353	8.5574
728	1	3.1118	10.113	8.5574
729	1	3.1118	9.3353	9.3353
730	1	3.8897	10.113	9.3353
731	1	3.8897	9.3353	10.113
732	1	3.1118	10.113	10.113
733	1	3.1118	9.3353	10.891
734	1	3.8897	10.113	10.891
735	1	3.8897	9.3353	11.669
736	1	3.1118	10.113	11.669
737	1	3.1118	10.891	0
738	1	3.8897	11.669	0
739	1	3.8897	10.891	0.77794
740	1	3.1118	11.669	0.77794
741	1	3.1118	10.891	1.5559
742	1	3.8897	11.669	1.5559
743	1	3.8897	10.891	2.3338
744	1	3.1118	11.669	2.3338
745	1	3.1118	10.891	3.1118
746	1	3.8897	11.669	3.1118
747	1	3.8897	10.891	3.8897
748	1	3.1118	11.669	3.8897
749	1	3.1118	10.891	4.6676
750	1	3.8897	11.669	4.6676
751	1	3.8897	10.891	5.4456
752	1	3.1118	11.669	5.4456
753	1	3.1118	10.891	6.2235
754	1	3.8897	11.669	6.2235
755	1	3.8897	10.891	7.0015
756	1	3.1118	11.669	7.0015
757	1	3.1118	10.891	7.7794
758	1	3.8897	11.669	7.7794
759	1	3.8897	10.891	8.5574
760	1	3.1118	11.669	8.5574
761	1	3.1118	10.891	9.3353
762	1	3.8897	11.669	9.3353
763	1	3.8897	10.891	10.113
764	1	3.1118	11.669	10.113
765	1	3.1118	10.891	10.891
766	1	3.8897	11.669	10.891
767	1	3.8897	10.891	11.669
768	1	3.1118	11.669	11.669
769	1	4.6676	0	0
770	1	5.4456	0.77794	0
771	1	5.4456	0	0.77794
772	1	4.6676	0.77794	0.77794
773	1	4.6676	0	1.5559
774	1	5.4456	0.77794	1.5559
775	1	5.4456	0	2.3338
776	1	4.6676	0.77794	2.3338
777	1	4.6676	0	3.1118
778	1	5.4456	0.77794	3.1118
779	1	5.4456	0	3.8897
780	1	4.6676	0.77794	3.8897
781	1	4.6676	0	4.6676
782	1	5.4456	0.77794	4.6676
783	1	5.4456	0	5.4456
784	1	4.6676	0.77794	5.4456
785	1	4.6676	0	6.2235
786	1	5.4456	0.77794	6.2235
787	1	5.4456	0	7.0015
788	1	4.6676	0.77794	7.0015
789	1	4.6676	0	7.7794
790	1	5.4456	0.77794	7.7794
791	1	5.4456	0	8.5574
792	1	4.6676	0.77794	8.5574
793	1	4.6676	0	9.3353
794	1	5.4456	0.77794	9.3353
795	1	5.4456	0	10.113
796	1	4.6676	0.77794	10.113
797	1	4.6676	0	10.891
798	1	5.4456	0.77794	10.891
799	1	5.4456	0	11.669
800	1	4.6676	0.77794	11.669
801	1	4.6676	1.5559	0
802	1	5.4456	2.3338	0
803	1	5.4456	1.5559	0.77794
804	1	4.6676	2.3338	0.77794
805	1	4.6676	1.5559	1.5559
806	1	5.4456	2.3338	1.5559
807	1	5.4456	1.5559	2.3338
808	1	4.6676	2.3338	2.3338
809	1	4.6676	1.5559	3.1118
810	1	5.4456	2.3338	3.1118
811	1	5.4456	1.5559	3.8897
812	1	4.6676	2.3338	3.8897
813	1	4.6676	1.5559	4.6676
814	1	5.4456	2.3338	4.6676
815	1	5.4456	1.5559	5.4456
816	1	4.6676	2.3338	5.4456
817	1	4.6676	1.5559	6.2235
818	1	5.4456	2.3338	6.2235
819	1	5.4456	1.5559	7.0015
820	1	4.6676	2.3338	7.0015
821	1	4.6676	1.5559	7.7794
822	1	5.4456	2.3338	7.7794
823	1	5.4456	1.5559	8.5574
824	1	4.6676	2.3338	8.5574
825	1	4.6676	1.5559	9.3353
826	1	5.4456	2.3338	9.3353
827	1	5.4456	1.5559	10.113
828	1	4.6676	2.3338	10.113
829	1	4.6676	1.5559	10.891
830	1	5.4456	2.3338	10.891
831	1	5.4456	1.5559	11.669
832	1	4.6676	2.3338	11.669
833	1	4.6676	3.1118	0
834	1	5.4456	3.8897	0
835	1	5.4456	3.1118	0.77794
836	1	4.6676	3.8897	0.77794
837	1	4.6676	3.1118	1.5559
838	1	5.4456	3.8897	1.5559
839	1	5.4456	3.1118	2.3338
840	1	4.6676	3.8897	2.3338
841	1	4.6676	3.1118	3.1118
842	1	5.4456	3.8897	3.1118
843	1	5.4456	3.1118	3.8897
844	1	4.6676	3.8897	3.8897
845	1	4.6676	3.1118	4.6676
846	1	5.4456	3.8897	4.6676
847	1	5.4456	3.1118	5.4456
848	1	4.6676	3.8897	5.4456
849	1	4.6676	3.1118	6.2235
850	1	5.4456	3.8897	6.2235
851	1	5.4456	3.1118	7.0015
852	1	4.6676	3.8897	7.0015
853	1	4.6676	3.1118	7.7794
854	1	5.4456	3.8897	7.7794
855	1	5.4456	3.1118	8.5574
856	1	4.6676	3.8897	8.5574
857	1	4.6676	3.1118	9.3353
858	1	5.4456	3.8897	9.3353
859	1	5.4456	3.1118	10.113
860	1	4.6676	3.8897	10.113
861	1	4.6676	3.1118	10.891
862	1	5.4456	3.8897	10.891
863	1	5.4456	3.1118	11.669
864	1	4.6676	3.8897	11.669
865	1	4.6676	4.6676	0
866	1	5.4456	5.4456	0
867	1	5.4456	4.6676	0.77794
868	1	4.6676	5.4456	0.77794
869	1	4.6676	4.6676	1.5559
870	1	5.4456	5.4456	1.5559
871	1	5.4456	4.6676	2.3338
872	1	4.6676	5.4456	2.3338
873	1	4.6676	4.6676	3.1118
874	1	5.4456	5.4456	3.1118
875	1	5.4456	4.6676	3.8897
876	1	4.6676	5.4456	3.8897
877	1	4.6676	4.6676	4.6676
878	1	5.4456	5.4456	4.6676
879	1	5.4456	4.6676	5.4456
880	1	4.6676	5.4456	5.4456
881	1	4.6676	4.6676	6.2235
882	1	5.4456	5.4456	6.2235
883	1	5.4456	4.6676	7.0015
884	1	4.6676	5.4456	7.0015
885	1	4.6676	4.6676	7.7794
886	1	5.4456	5.4456	7.7794
887	1	5.4456	4.6676	8.5574
888	1	4.6676	5.4456	8.5574
889	1	4.6676	4.6676	9.3353
890	1	5.4456	5.4456	9.3353
891	1	5.4456	4.6676	10.113
892	1	4.6676	5.4456	10.113
893	1	4.6676	4.6676	10.891
894	1	5.4456	5.4456	10.891
895	1	5.4456	4.6676	11.669
896	1	4.6676	5.4456	11.669
897	1	4.6676	6.2235	0
898	1	5.4456	7.0015	0
899	1	5.4456	6.2235	0.77794
900	1	4.6676	7.0015	0.77794
901	1	4.6676	6.2235	1.5559
902	1	5.4456	7.0015	1.5559
903	1	5.4456	6.2235	2.3338
904	1	4.6676	7.0015	2.3338
905	1	4.6676	6.2235	3.1118
906	1	5.4456	7.0015	3.1118
907	1	5.4456	6.2235	3.8897
908	1	4.6676	7.0015	3.8897
909	1	4.6676	6.2235	4.6676
910	1	5.4456	7.0015	4.6676
911	1	5.4456	6.2235	5.4456
912	1	4.6676	7.0015	5.4456
913	1	4.6676	6.2235	6.2235
914	1	5.4456	7.0015	6.2235
915	1	5.4456	6.2235	7.0015
916	1	4.6676	7.0015	7.0015
917	1	4.6676	6.2235	7.7794
918	1	5.4456	7.0015	7.7794
919	1	5.4456	6.2235	8.5574
920	1	4.6676	7.0015	8.5574
921	1	4.6676	6.2235	9.3353
922	1	5.4456	7.0015	9.3353
923	1	5.4456	6.2235	10.113
924	1	4.6676	7.0015	10.113
925	1	4.6676	6.2235	10.891
926	1	5.4456	7.0015	10.891
927	1	5.4456	6.2235	11.669
928	1	4.6676	7.0015	11.669
929	1	4.6676	7.7794	0
930	1	5.4456	8.5574	0
931	1	5.4456	7.7794	0.77794
932	1	4.6676	8.5574	0.77794
933	1	4.6676	7.7794	1.5559
934	1	5.4456	8.5574	1.5559
935	1	5.4456	7.7794	2.3338
936	1	4.6676	8.5574	2.3338
937	1	4.6676	7.7794	3.1118
938	1	5.4456	8.5574	3.1118
939	1	5.4456	7.7794	3.8897
940	1	4.6676	8.5574	3.8897
941	1	4.6676	7.7794	4.6676
942	1	5.4456	8.5574	4.6676
943	1	5.4456	7.7794	5.4456
944	1	4.6676	8.5574	5.4456
945	1	4.6676	7.7794	6.2235
946	1	5.4456	8.5574	6.2235
947	1	5.4456	7.7794	7.0015
948	1	4.6676	8.5574	7.0015
949	1	4.6676	7.7794	7.7794
950	1	5.4456	8.5574	7.7794
951	1	5.4456	7.7794	8.5574
952	1	4.6676	8.5574	8.5574
953	1	4.6676	7.7794	9.3353
954	1	5.4456	8.5574	9.3353
955	1	5.4456	7.7794	10.113
956	1	4.6676	8.5574	10.113
957	1	4.6676	7.7794	10.891
958	1	5.4456	8.5574	10.891
959	1	5.4456	7.7794	11.669
960	1	4.6676	8.5574	11.669
961	1	4.6676	9.3353	0
962	1	5.4456	10.113	0
963	1	5.4456	9.3353	0.77794
964	1	4.6676	10.113	0.77794
965	1	4.6676	9.3353	1.5559
966	1	5.4456	10.113	1.5559
967	1	5.4456	9.3353	2.3338
968	1	4.6676	10.113	2.3338
969	1	4.6676	9.3353	3.1118
970	1	5.4456	10.113	3.1118
971	1	5.4456	9.3353	3.8897
972	1	4.6676	10.113	3.8897
973	1	4.6676	9.3353	4.6676
974	1	5.4456	10.113	4.6676
975	1	5.4456	9.3353	5.4456
976	1	4.6676	10.113	5.4456
977	1	4.6676	9.3353	6.2235
978	1	5.4456	10.113	6.2235
979	1	5.4456	9.3353	7.0015
980	1	4.6676	10.113	7.0015
981	1	4.6676	9.3353	7.7794
982	1	5.4456	10.113	7.7794
983	1	5.4456	9.3353	8.5574
984	1	4.6676	10.113	8.5574
985	1	4.6676	9.3353	9.3353
986	1	5.4456	10.113	9.3353
987	1	5.4456	9.3353	10.113
988	1	4.6676	10.113	10.113
989	1	4.6676	9.3353	10.891
990	1	5.4456	10.113	10.891
991	1	5.4456	9.3353	11.669
992	1	4.6676	10.113	11.669
993	1	4.6676	10.891	0
994	1	5.4456	11.669	0
995	1	5.4456	10.891	0.77794
996	1	4.6676	11.669	0.77794
997	1	4.6676	10.891	1.5559
998	1	5.4456	11.669	1.5559
999	1	5.4456	10.891	2.3338
1000	1	4.6676	11.669	2.3338
1001	1	4.6676	10.891	3.1118
1002	1	5.4456	11.669	3.1118
1003	1	5.4456	10.891	3.8897
1004	1	4.6676	11.669	3.8897
1005	1	4.6676	10.891	4.6676
1006	1	5.4456	11.669	4.6676
1007	1	5.4456	10.891	5.4456
1008	1	4.6676	11.669	5.4456
1009	1	4.6676	10.891	6.2235
1010	1	5.4456	11.669	6.2235
1011	1	5.4456	10.891	7.0015
1012	1	4.6676	11.669	7.0015
1013	1	4.6676	10.891	7.7794
1014	1	5.4456	11.669	7.7794
1015	1	5.4456	10.891	8.5574
1016	1	4.6676	11.669	8.5574
1017	1	4.6676	10.891	9.3353
1018	1	5.4456	11.669	9.3353
1019	1	5.4456	10.891	10.113
1020	1	4.6676	11.669	10.113
1021	1	4.6676	10.891	10.891
1022	1	5.4456	11.669	10.891
1023	1	5.4456	10.891	11.669
1024	1	4.6676	11.669	11.669
1025	1	6.2235	0	0
1026	1	7.0015	0.77794	0
1027	1	7.0015	0	0.77794
1028	1	6.2235	0.77794	0.77794
1029	1	6.2235	0	1.5559
1030	1	7.0015	0.77794	1.5559
1031	1	7.0015	0	2.3338
1032	1	6.2235	0.77794	2.3338
1033	1	6.2235	0	3.1118
1034	1	7.0015	0.77794	3.1118
1035	1	7.0015	0	3.8897
1036	1	6.2235	0.77794	3.8897
1037	1	6.2235	0	4.6676
1038	1	7.0015	0.77794	4.6676
1039	1	7.0015	0	5.4456
1040	1	6.2235	0.77794	5.4456
1041	1	6.2235	0	6.2235
1042	1	7.0015	0.77794	6.2235
1043	1	7.0015	0	7.0015
1044	1	6.2235	0.77794	7.0015
1045	1	6.2235	0	7.7794
1046	1	7.0015	0.77794	7.7794
1047	1	7.0015	0	8.5574
1048	1	6.2235	0.77794	8.5574
1049	1	6.2235	0	9.3353
1050	1	7.0015	0.77794	9.3353
1051	1	7.0015	0	10.113
1052	1	6.2235	0.77794	10.113
1053	1	6.2235	0	10.891
1054	1	7.0015	0.77794	10.891
1055	1	7.0015	0	11.669
1056	1	6.2235	0.77794	11.669
1057	1	6.2235	1.5559	0
1058	1	7.0015	2.3338	0
1059	1	7.0015	1.5559	0.77794
1060	1	6.2235	2.3338	0.77794
1061	1	6.2235	1.5559	1.5559
1062	1	7.0015	2.3338	1.5559
1063	1	7.0015	1.5559	2.3338
1064	1	6.2235	2.3338	2.3338
1065	1	6.2235	1.5559	3.1118
1066	1	7.0015	2.3338	3.1118
1067	1	7.0015	1.5559	3.8897
1068	1	6.2235	2.3338	3.8897
1069	1	6.2235	1.5559	4.6676
1070	1	7.0015	2.3338	4.6676
1071	1	7.0015	1.5559	5.4456
1072	1	6.2235	2.3338	5.4456
1073	1	6.2235	1.5559	6.2235
1074	1	7.0015	2.3338	6.2235
1075	1	7.0015	1.5559	7.0015
1076	1	6.2235	2.3338	7.0015
1077	1	6.2235	1.5559	7.7794
1078	1	7.0015	2.3338	7.7794
1079	1	7.0015	1.5559	8.5574
1080	1	6.2235	2.3338	8.5574
1081	1	6.2235	1.5559	9.3353
1082	1	7.0015	2.3338	9.3353
1083	1	7.0015	1.5559	10.113
1084	1	6.2235	2.3338	10.113
1085	1	6.2235	1.5559	10.891
1086	1	7.0015	2.3338	10.891
1087	1	7.0015	1.5559	11.669
1088	1	6.2235	2.3338	11.669
1089	1	6.2235	3.1118	0
1090	1	7.0015	3.8897	0
1091	1	7.0015	3.1118	0.77794
1092	1	6.2235	3.8897	0.77794
1093	1	6.2235	3.1118	1.5559
1094	1	7.0015	3.8897	1.5559
1095	1	7.0015	3.1118	2.3338
1096	1	6.2235	3.8897	2.3338
1097	1	6.2235	3.1118	3.1118
1098	1	7.0015	3.8897	3.1118
1099	1	7.0015	3.1118	3.8897
1100	1	6.2235	3.8897	3.8897
1101	1	6.2235	3.1118	4.6676
1102	1	7.0015	3.8897	4.6676
1103	1	7.0015	3.1118	5.4456
1104	1	6.2235	3.8897	5.4456
1105	1	6.2235	3.1118	6.2235
1106	1	7.0015	3.8897	6.2235
1107	1	7.0015	3.1118	7.0015
1108	1	6.2235	3.8897	7.0015
1109	1	6.2235	3.1118	7.7794
1110	1	7.0015	3.8897	7.7794
1111	1	7.0015	3.1118	8.5574
1112	1	6.2235	3.8897	8.5574
1113	1	6.2235	3.1118	9.3353
1114	1	7.0015	3.8897	9.3353
1115	1	7.0015	3.1118	10.113
1116	1	6.2235	3.8897	10.113
1117	1	6.2235	3.1118	10.891
1118	1	7.0015	3.8897	10.891
1119	1	7.0015	3.1118	11.669
1120	1	6.2235	3.8897	11.669
1121	1	6.2235	4.6676	0
1122	1	7.0015	5.4456	0
1123	1	7.0015	4.6676	0.77794
1124	1	6.2235	5.4456	0.77794
1125	1	6.2235	4.6676	1.5559
1126	1	7.0015	5.4456	1.5559
1127	1	7.0015	4.6676	2.3338
1128	1	6.2235	5.4456	2.3338
1129	1	6.2235	4.6676	3.1118
1130	1	7.0015	5.4456	3.1118
1131	1	7.0015	4.6676	3.8897
1132	1	6.2235	5.4456	3.8897
1133	1	6.2235	4.6676	4.6676
1134	1	7.0015	5.4456	4.6676
1135	1	7.0015	4.6676	5.4456
1136	1	6.2235	5.4456	5.4456
1137	1	6.2235	4.6676	6.2235
1138	1	7.0015	5.4456	6.2235
1139	1	7.0015	4.6676	7.0015
1140	1	6.2235	5.4456	7.0015
1141	1	6.2235	4.6676	7.7794
1142	1	7.0015	5.4456	7.7794
1143	1	7.0015	4.6676	8.5574
1144	1	6.2235	5.4456	8.5574
1145	1	6.2235	4.6676	9.3353
1146	1	7.0015	5.4456	9.3353