	reset_timestep  	0
	fix 			1 all nve
	dump 			vel all custom ${w_step} dump_${iseed}_${ifft}.vel vx vy vz
	dump 			vel all custom 32 dump_${iseed}_${ifft}.vel vx vy vz
	dump 			vel all custom 32 dump_1_${ifft}.vel vx vy vz
	dump 			vel all custom 32 dump_1_1.vel vx vy vz
	dump_modify 		vel sort id
	thermo_style 		custom step temp press vol
	thermo			5000
	timestep		${dt}
	timestep		0.002
	run			${w_total}
	run			524288
Memory usage per processor = 1.95276 Mbytes
Step Temp Press Volume 
       0  0.086234081  0.028125156    1928.4329 
    5000  0.084030631  0.044723647    1928.4329 
   10000  0.084006333  0.045575012    1928.4329 
   15000  0.087199868  0.019448188    1928.4329 
   20000  0.084390179  0.042293606    1928.4329 
   25000  0.083272554  0.050073763    1928.4329 
   30000  0.084865121  0.037227936    1928.4329 
   35000  0.085432794  0.033925586    1928.4329 
   40000  0.084929215   0.03787804    1928.4329 
   45000  0.083893962  0.045631697    1928.4329 
   50000  0.084200294   0.04333331    1928.4329 
   55000  0.083746944  0.049966066    1928.4329 
   60000  0.085480988  0.033250237    1928.4329 
   65000  0.084956887  0.037629546    1928.4329 
   70000  0.085962556  0.030178718    1928.4329 
   75000  0.083860198  0.047693694    1928.4329 
   80000  0.084585391   0.04091465    1928.4329 
   85000  0.084366259  0.044249389    1928.4329 
   90000  0.084900082  0.037061121    1928.4329 
   95000  0.085551697  0.032872437    1928.4329 
  100000  0.085477381  0.034291247    1928.4329 
  105000  0.086183123  0.026795633    1928.4329 
  110000    0.0842231   0.04526133    1928.4329 
  115000  0.087253844  0.017853715    1928.4329 
  120000  0.086383304  0.025898626    1928.4329 
  125000  0.086083573  0.028993696    1928.4329 
  130000  0.085217033  0.036621693    1928.4329 
  135000  0.083870254  0.046588207    1928.4329 
  140000  0.085339114  0.034384356    1928.4329 
  145000  0.083661089  0.047278517    1928.4329 
  150000  0.082851633  0.054422671    1928.4329 
  155000  0.084060417  0.044372611    1928.4329 
  160000   0.08571219  0.032020004    1928.4329 
  165000  0.085999629  0.030083036    1928.4329 
  170000    0.0847933  0.040269099    1928.4329 
  175000   0.08502742  0.038205193    1928.4329 
  180000  0.084078314  0.045094247    1928.4329 
  185000  0.083836459   0.04662214    1928.4329 
  190000  0.084492204  0.041511724    1928.4329 
  195000  0.084129667  0.045628245    1928.4329 
  200000  0.084041953  0.046068359    1928.4329 
  205000  0.084912895  0.036720754    1928.4329 
  210000  0.087064319  0.019071254    1928.4329 
  215000  0.086085041  0.029457576    1928.4329 
  220000  0.085571519  0.031888881    1928.4329 
  225000  0.084486902  0.040871624    1928.4329 
  230000  0.085135622  0.035102709    1928.4329 
  235000  0.084141317  0.045266596    1928.4329 
  240000   0.08485284  0.038843243    1928.4329 
  245000  0.084774763  0.037189927    1928.4329 
  250000  0.083374128  0.050956021    1928.4329 
  255000  0.085505154  0.033166606    1928.4329 
  260000  0.085507481  0.034168623    1928.4329 
  265000  0.083566044  0.047708306    1928.4329 
  270000  0.085224909   0.03542835    1928.4329 
  275000  0.086621043   0.02536664    1928.4329 
  280000  0.085224171  0.036485761    1928.4329 
  285000   0.08318991  0.051021436    1928.4329 
  290000  0.085410419  0.032962431    1928.4329 
  295000  0.084437679  0.041491437    1928.4329 
  300000  0.084670353   0.03781174    1928.4329 
  305000  0.084869364  0.040126352    1928.4329 
  310000  0.083732711  0.047646142    1928.4329 
  315000  0.083710074  0.047651425    1928.4329 
  320000  0.084926176  0.038163515    1928.4329 
  325000  0.083072834  0.052778235    1928.4329 
  330000  0.085446813  0.034411932    1928.4329 
  335000  0.084527882  0.041332493    1928.4329 
  340000  0.083542555  0.047210419    1928.4329 
  345000  0.086668969   0.02331797    1928.4329 
  350000  0.084692893  0.041231357    1928.4329 
  355000  0.085415576   0.03580998    1928.4329 
  360000  0.085720028   0.03170312    1928.4329 
  365000  0.085379622  0.035103143    1928.4329 
  370000  0.084026224  0.046668579    1928.4329 
  375000  0.083121329   0.05175494    1928.4329 
  380000  0.083732329  0.046647937    1928.4329 
  385000    0.0836532  0.045771607    1928.4329 
  390000  0.084770008  0.039216164    1928.4329 
  395000  0.083654997  0.048334065    1928.4329 
  400000  0.084778294  0.040314714    1928.4329 
  405000  0.086696495  0.024096836    1928.4329 
  410000   0.08555231  0.033686043    1928.4329 
  415000  0.083833127  0.049798386    1928.4329 
  420000  0.085096375  0.036589581    1928.4329 
  425000  0.086735419  0.024985347    1928.4329 
  430000  0.083794869  0.048921237    1928.4329 
  435000  0.085242666  0.035744932    1928.4329 
  440000   0.08317822   0.05368193    1928.4329 
  445000  0.084278184  0.044031885    1928.4329 
  450000      0.08549  0.032659944    1928.4329 
  455000   0.08488304   0.03952802    1928.4329 
  460000  0.082169282  0.061422135    1928.4329 
  465000  0.083175577  0.053597491    1928.4329 
  470000   0.08402108  0.045786069    1928.4329 
  475000  0.084221297  0.043599987    1928.4329 
  480000  0.084550592  0.040822824    1928.4329 
  485000  0.085667176  0.033081093    1928.4329 
  490000  0.084478138  0.043647686    1928.4329 
  495000  0.086009175  0.029874072    1928.4329 
  500000  0.084114237  0.046711682    1928.4329 
  505000  0.084557887  0.041686056    1928.4329 
  510000   0.08478982  0.039599786    1928.4329 
  515000  0.084075529  0.047808767    1928.4329 
  520000   0.08431773  0.046188596    1928.4329 
  524288  0.085044982   0.03672339    1928.4329 
Loop time of 1375.12 on 1 procs for 524288 steps with 2048 atoms

Pair  time (%) = 1208.07 (87.8519)
Neigh time (%) = 8.90191 (0.647353)
Comm  time (%) = 23.5448 (1.71219)
Outpt time (%) = 100.706 (7.3234)
Other time (%) = 33.8994 (2.46519)

Nlocal:    2048 ave 2048 max 2048 min
Histogram: 1 0 0 0 0 0 0 0 0 0
Nghost:    4035 ave 4035 max 4035 min
Histogram: 1 0 0 0 0 0 0 0 0 0
Neighs:    88063 ave 88063 max 88063 min
Histogram: 1 0 0 0 0 0 0 0 0 0

Total # of neighbors = 88063
Ave neighs/atom = 42.9995
Neighbor list builds = 1518
Dangerous builds = 0
	unfix			1
	undump			vel

next ifft
jump lmp.in.sed.1 loop_fft

