
#------------ NVE rescale ---------------------------------------------------------------------	
	velocity 		all create ${T_run} ${seed} rot yes dist gaussian
	velocity 		all create 0.08267367665 ${seed} rot yes dist gaussian
	velocity 		all create 0.08267367665 11111 rot yes dist gaussian
	fix 			1 all nve
	fix 			2 all temp/rescale 1 ${T_run} ${T_run} 0.01 1.0
	fix 			2 all temp/rescale 1 0.08267367665 ${T_run} 0.01 1.0
	fix 			2 all temp/rescale 1 0.08267367665 0.08267367665 0.01 1.0
	timestep		${dt}
	timestep		0.002
	thermo_style  	custom step temp press etotal vol
	thermo			1000
	run             	100000	
Memory usage per processor = 1.6977 Mbytes
Step Temp Press TotEng Volume 
       0  0.082673677  -0.71786182   -7.3346489    1928.4329 
    1000  0.085007596  0.044951749    -7.205306    1928.4329 
    2000  0.082212902  0.070573037   -7.2053086    1928.4329 
    3000   0.08338748  0.060131928   -7.2053075    1928.4329 
    4000  0.086046856  0.040965804   -7.2053062    1928.4329 
    5000  0.083148166  0.060460653   -7.2053063    1928.4329 
    6000  0.083953909  0.053279107   -7.2053086    1928.4329 
    7000   0.08364364  0.055168713   -7.2053076    1928.4329 
    8000  0.085196715  0.039862905   -7.2053076    1928.4329 
    9000  0.085072991  0.041254753   -7.2053059    1928.4329 
   10000  0.084808396  0.043946488   -7.2053078    1928.4329 
   11000  0.085339882  0.036901791   -7.2053073    1928.4329 
   12000  0.084481901  0.043946634   -7.2053066    1928.4329 
   13000  0.084642377  0.040435233   -7.2053065    1928.4329 
   14000  0.085584077  0.033037763   -7.2053085    1928.4329 
   15000  0.085902108  0.032655803   -7.2053078    1928.4329 
   16000  0.085991998  0.030812985   -7.2053067    1928.4329 
   17000  0.085741699  0.034318058   -7.2053061    1928.4329 
   18000  0.083978534   0.04858218   -7.2053072    1928.4329 
   19000  0.084048953  0.048248364   -7.2053083    1928.4329 
   20000  0.084490133  0.042751503     -7.20531    1928.4329 
   21000  0.084409729  0.042184303   -7.2053133    1928.4329 
   22000  0.084363328  0.040900013   -7.2053074    1928.4329 
   23000  0.085756475  0.032373098   -7.2053083    1928.4329 
   24000  0.084631252  0.041049556   -7.2053061    1928.4329 
   25000  0.084473877   0.04273581   -7.2053035    1928.4329 
   26000  0.085938211  0.029617034   -7.2053056    1928.4329 
   27000  0.083659088  0.046611861   -7.2053041    1928.4329 
   28000    0.0851954  0.035873693    -7.205301    1928.4329 
   29000  0.085874243  0.029985405   -7.2053048    1928.4329 
   30000   0.08445425  0.042686378    -7.205302    1928.4329 
   31000  0.085144251  0.035035829   -7.2053053    1928.4329 
   32000  0.084185929  0.043393897   -7.2053072    1928.4329 
   33000  0.086223446  0.028459822   -7.2053101    1928.4329 
   34000  0.085389599  0.033661364   -7.2053061    1928.4329 
   35000  0.085489568   0.03256948   -7.2053042    1928.4329 
   36000  0.086797905  0.023050276   -7.2053027    1928.4329 
   37000  0.084760978  0.039605884   -7.2052993    1928.4329 
   38000  0.082645922  0.056633133   -7.2052979    1928.4329 
   39000  0.083510958  0.049128984   -7.2052983    1928.4329 
   40000  0.086359409  0.026613833   -7.2052957    1928.4329 
   41000  0.085562745  0.033045688   -7.2052936    1928.4329 
   42000  0.084850407  0.040815949    -7.205293    1928.4329 
   43000  0.084934028  0.039440072   -7.2052887    1928.4329 
   44000  0.085891895   0.02932423   -7.2052895    1928.4329 
   45000  0.084317542  0.042480716   -7.2052895    1928.4329 
   46000  0.082415273  0.059114417   -7.2052876    1928.4329 
   47000  0.084091711  0.044924443   -7.2052855    1928.4329 
   48000  0.086205163  0.028932839   -7.2052893    1928.4329 
   49000   0.08462753  0.040867583   -7.2052884    1928.4329 
   50000  0.085797484  0.029142309   -7.2052908    1928.4329 
   51000  0.086282021  0.024908201    -7.205295    1928.4329 
   52000  0.086182004  0.028271113   -7.2052933    1928.4329 
   53000  0.084694593  0.041336444   -7.2052943    1928.4329 
   54000  0.083927101  0.047163205   -7.2052941    1928.4329 
   55000  0.086714014  0.023615812   -7.2052958    1928.4329 
   56000   0.08521124   0.03638896   -7.2052934    1928.4329 
   57000  0.084436536  0.041701419   -7.2052894    1928.4329 
   58000  0.083374475   0.05078545    -7.205289    1928.4329 
   59000  0.084914597  0.039454127   -7.2052896    1928.4329 
   60000  0.087067791   0.01932339   -7.2052897    1928.4329 
   61000  0.084747893  0.038280134   -7.2052885    1928.4329 
   62000  0.084474208  0.042615408   -7.2052856    1928.4329 
   63000  0.084681659  0.040232111   -7.2052866    1928.4329 
   64000  0.084941355  0.040615014   -7.2052876    1928.4329 
   65000  0.085229429  0.035935363   -7.2052857    1928.4329 
   66000  0.084880237  0.038904901   -7.2052843    1928.4329 
   67000  0.084522362   0.04147356   -7.2052825    1928.4329 
   68000   0.08542406  0.035179235   -7.2052824    1928.4329 
   69000  0.082960172  0.053724642    -7.205278    1928.4329 
   70000  0.085491496  0.035375151   -7.2052762    1928.4329 
   71000  0.084735265  0.039809479   -7.2052738    1928.4329 
   72000  0.082869772  0.056847756   -7.2052768    1928.4329 
   73000  0.085445695  0.034429288   -7.2052799    1928.4329 
   74000  0.084765349  0.037762198   -7.2052786    1928.4329 
   75000  0.085607091  0.030898791   -7.2052791    1928.4329 
   76000  0.085815082  0.029995712   -7.2052804    1928.4329 
   77000  0.085202067  0.035701832    -7.205279    1928.4329 
   78000  0.085353335  0.035943258   -7.2052815    1928.4329 
   79000  0.084504315  0.041280367   -7.2052795    1928.4329 
   80000  0.084374152  0.041875567   -7.2052795    1928.4329 
   81000  0.084393051  0.042291411   -7.2052808    1928.4329 
   82000  0.084637774  0.041803391   -7.2052766    1928.4329 
   83000  0.084053642  0.045958323   -7.2052759    1928.4329 
   84000  0.085343077  0.034737002   -7.2052755    1928.4329 
   85000  0.085139603  0.037226123   -7.2052771    1928.4329 
   86000  0.084976981  0.037449534   -7.2052774    1928.4329 
   87000  0.084012176  0.046512689   -7.2052806    1928.4329 
   88000  0.087824528  0.014054671    -7.205284    1928.4329 
   89000  0.083949049   0.04444125   -7.2052846    1928.4329 
   90000  0.084584566  0.041012654   -7.2052842    1928.4329 
   91000  0.084405745  0.041929659   -7.2052847    1928.4329 
   92000  0.086267624  0.026826155    -7.205282    1928.4329 
   93000  0.085445666  0.032420702   -7.2052793    1928.4329 
   94000  0.083213633  0.049884936   -7.2052793    1928.4329 
   95000  0.084521053  0.040021395   -7.2052775    1928.4329 
   96000  0.084352315  0.043598444   -7.2052789    1928.4329 
   97000  0.083917051   0.04665725   -7.2052782    1928.4329 
   98000  0.085533406  0.034023609   -7.2052788    1928.4329 
   99000  0.083985659  0.045022548   -7.2052774    1928.4329 
  100000  0.086199283  0.027123973   -7.2052765    1928.4329 
Loop time of 212.261 on 1 procs for 100000 steps with 2048 atoms

Pair  time (%) = 201.831 (95.086)
Neigh time (%) = 0 (0)
Comm  time (%) = 3.80029 (1.79039)
Outpt time (%) = 0.00488043 (0.00229926)
Other time (%) = 6.62524 (3.12127)

Nlocal:    2048 ave 2048 max 2048 min
Histogram: 1 0 0 0 0 0 0 0 0 0
Nghost:    4035 ave 4035 max 4035 min
Histogram: 1 0 0 0 0 0 0 0 0 0
Neighs:    88064 ave 88064 max 88064 min
Histogram: 1 0 0 0 0 0 0 0 0 0

Total # of neighbors = 88064
Ave neighs/atom = 43
Neighbor list builds = 0
Dangerous builds = 0
#	run             	1000
	unfix 			1
	unfix 			2
#------------ NVE -----------------------------------------------------------------------------	
	fix 			1 all nve
	timestep		${dt}
	timestep		0.002
	thermo_style  	custom step temp press etotal vol
	thermo			1000
	run             	250000	
Memory usage per processor = 1.6977 Mbytes
Step Temp Press TotEng Volume 
  100000  0.086199283  0.027123973   -7.2052765    1928.4329 
  101000  0.086067987  0.030062472   -7.2052742    1928.4329 
  102000  0.085000481   0.03705716   -7.2052716    1928.4329 
  103000  0.085460655  0.035172015   -7.2052736    1928.4329 
  104000  0.085299503  0.035208146   -7.2052725    1928.4329 
  105000  0.084158544  0.046758631    -7.205273    1928.4329 
  106000  0.085264109  0.035972675   -7.2052718    1928.4329 
  107000  0.086363107  0.026952139   -7.2052715    1928.4329 
  108000    0.0856066  0.035573817   -7.2052743    1928.4329 
  109000  0.084757243  0.041409828   -7.2052735    1928.4329 
  110000  0.086680421    0.0230329   -7.2052734    1928.4329 
  111000  0.086002489  0.029895531    -7.205272    1928.4329 
  112000  0.086499678  0.026111219   -7.2052739    1928.4329 
  113000  0.086145915   0.02891381   -7.2052728    1928.4329 
  114000  0.085372135  0.034911182   -7.2052742    1928.4329 
  115000  0.086650581  0.023342289   -7.2052761    1928.4329 
  116000  0.084761941  0.038639032    -7.205274    1928.4329 
  117000  0.085898017  0.030603323   -7.2052757    1928.4329 
  118000  0.084471056  0.043634888   -7.2052787    1928.4329 
  119000   0.08533599  0.035502372   -7.2052771    1928.4329 
  120000  0.083839702  0.047578823   -7.2052735    1928.4329 
  121000  0.086015663  0.028545605   -7.2052733    1928.4329 
  122000  0.084482955  0.041915675   -7.2052762    1928.4329 
  123000  0.086099374  0.028174303   -7.2052744    1928.4329 
  124000  0.086408438  0.026844135   -7.2052787    1928.4329 
  125000  0.083670287    0.0499392   -7.2052809    1928.4329 
  126000  0.084576377   0.04093913   -7.2052808    1928.4329 
  127000  0.085641427  0.031398058   -7.2052841    1928.4329 
  128000   0.08467759   0.03907717   -7.2052845    1928.4329 
  129000  0.083002323  0.054490573   -7.2052817    1928.4329 
  130000  0.084517991  0.041470304   -7.2052831    1928.4329 
  131000  0.083477609  0.049171453   -7.2052842    1928.4329 
  132000   0.08512514  0.039456568   -7.2052845    1928.4329 
  133000  0.084524105  0.042342948   -7.2052832    1928.4329 
  134000  0.083846984  0.048431309   -7.2052832    1928.4329 
  135000  0.084857047  0.040152766   -7.2052841    1928.4329 
  136000  0.085971195  0.028812972   -7.2052838    1928.4329 
  137000  0.084116362  0.044656658   -7.2052781    1928.4329 
  138000  0.083615537  0.046968587   -7.2052757    1928.4329 
  139000  0.083668931  0.048441817   -7.2052768    1928.4329 
  140000  0.083619305  0.049405447   -7.2052748    1928.4329 
  141000  0.083844615  0.046214052   -7.2052749    1928.4329 
  142000  0.083877746  0.047552116   -7.2052781    1928.4329 
  143000  0.083975343  0.044135351   -7.2052779    1928.4329 
  144000  0.086401073  0.027636014   -7.2052813    1928.4329 
  145000  0.083578393  0.050166084   -7.2052801    1928.4329 
  146000  0.085268678  0.035295581    -7.205284    1928.4329 
  147000  0.083792704  0.048670088   -7.2052792    1928.4329 
  148000   0.08604809  0.030283939   -7.2052786    1928.4329 
  149000  0.082652267  0.057378993   -7.2052735    1928.4329 
  150000  0.081992978   0.06258329   -7.2052759    1928.4329 
  151000  0.087109922  0.020491211   -7.2052752    1928.4329 
  152000  0.086022178  0.030033207   -7.2052759    1928.4329 
  153000  0.084321228  0.042988011   -7.2052756    1928.4329 
  154000  0.082717317  0.056320044   -7.2052751    1928.4329 
  155000  0.084182733  0.044141704   -7.2052766    1928.4329 
  156000  0.085196734  0.036338511   -7.2052764    1928.4329 
  157000  0.084093329  0.045010396   -7.2052758    1928.4329 
  158000   0.08511244  0.038028658   -7.2052801    1928.4329 
  159000  0.084960106  0.038705342   -7.2052804    1928.4329 
  160000     0.085161  0.036533127   -7.2052825    1928.4329 
  161000   0.08577022  0.032180802   -7.2052804    1928.4329 
  162000  0.085098896    0.0374645   -7.2052793    1928.4329 
  163000  0.083917272  0.047336143   -7.2052798    1928.4329 
  164000  0.083488599  0.050056081   -7.2052798    1928.4329 
  165000  0.084975981  0.037614924   -7.2052791    1928.4329 
  166000  0.084699251  0.039667852   -7.2052778    1928.4329 
  167000  0.085978839  0.030785411   -7.2052793    1928.4329 
  168000  0.083539174  0.047184317   -7.2052796    1928.4329 
  169000  0.085783605  0.030907486   -7.2052813    1928.4329 
  170000   0.08525184  0.034887113   -7.2052803    1928.4329 
  171000  0.083719691  0.047931819   -7.2052821    1928.4329 
  172000  0.083465707  0.051614718   -7.2052842    1928.4329 
  173000  0.085073345  0.038428349   -7.2052854    1928.4329 
  174000  0.085024147  0.038312031   -7.2052843    1928.4329 
  175000  0.084942042   0.03723602   -7.2052868    1928.4329 
  176000  0.085499876  0.033422522   -7.2052866    1928.4329 
  177000  0.084388231  0.043810368    -7.205288    1928.4329 
  178000  0.081964446  0.060525696   -7.2052875    1928.4329 
  179000  0.084610284  0.041367751   -7.2052911    1928.4329 
  180000  0.085944131  0.030803552   -7.2052904    1928.4329 
  181000  0.083175939  0.052302292   -7.2052901    1928.4329 
  182000  0.084084547  0.045592509   -7.2052857    1928.4329 
  183000  0.083419684  0.049252441   -7.2052852    1928.4329 
  184000  0.086340136  0.026518243   -7.2052844    1928.4329 
  185000  0.085250013  0.037780014    -7.205286    1928.4329 
  186000  0.086288161   0.02792204   -7.2052841    1928.4329 
  187000  0.085970468  0.031222851   -7.2052848    1928.4329 
  188000  0.084719791  0.040668642    -7.205285    1928.4329 
  189000  0.086041901  0.030372608   -7.2052842    1928.4329 
  190000  0.085970403  0.031924378   -7.2052828    1928.4329 
  191000  0.085657712  0.032490916   -7.2052793    1928.4329 
  192000  0.083562699  0.048997595   -7.2052757    1928.4329 
  193000  0.085698753  0.031249486    -7.205277    1928.4329 
  194000    0.0855494  0.032771424   -7.2052788    1928.4329 
  195000  0.084221465  0.044101983    -7.205277    1928.4329 
  196000  0.085846833  0.032138927   -7.2052774    1928.4329 
  197000  0.085642131  0.033190176   -7.2052762    1928.4329 
  198000  0.085368232  0.034797275   -7.2052765    1928.4329 
  199000  0.083041751  0.052340836    -7.205273    1928.4329 
  200000  0.085137785  0.036197724    -7.205272    1928.4329 
  201000    0.0839588  0.046455942   -7.2052734    1928.4329 
  202000  0.085900334  0.030801715   -7.2052744    1928.4329 
  203000  0.083040528  0.051700688   -7.2052738    1928.4329 
  204000  0.085553551  0.034080449   -7.2052747    1928.4329 
  205000   0.08644519   0.02639662   -7.2052752    1928.4329 
  206000  0.084774238  0.040017002   -7.2052754    1928.4329 
  207000  0.084119648  0.045689183   -7.2052749    1928.4329 
  208000  0.084149489  0.045533176   -7.2052772    1928.4329 
  209000  0.085014364  0.036563896   -7.2052762    1928.4329 
  210000  0.086846223  0.021820864     -7.20528    1928.4329 
  211000  0.083327899  0.049618261   -7.2052772    1928.4329 
  212000  0.086677625   0.02489837   -7.2052798    1928.4329 
  213000   0.08513111  0.038818078   -7.2052824    1928.4329 
  214000  0.087018405  0.022528792   -7.2052857    1928.4329 
  215000  0.083862748  0.048675699   -7.2052844    1928.4329 
  216000  0.086004758  0.030241964   -7.2052869    1928.4329 
  217000  0.084649289   0.04007153    -7.205288    1928.4329 
  218000  0.085247825  0.035676257   -7.2052904    1928.4329 
  219000  0.084263806  0.043405678   -7.2052855    1928.4329 
  220000  0.084252604  0.044036956   -7.2052866    1928.4329 
  221000  0.085632846  0.032953757   -7.2052881    1928.4329 
  222000  0.085112403  0.036937166   -7.2052915    1928.4329 
  223000  0.084169018  0.043264557   -7.2052932    1928.4329 
  224000  0.086135266  0.029779163   -7.2052956    1928.4329 
  225000  0.084003635  0.046409019   -7.2052952    1928.4329 
  226000   0.08457334  0.042622097   -7.2052947    1928.4329 
  227000  0.084957858  0.037362739   -7.2052961    1928.4329 
  228000  0.085460428  0.034198732   -7.2052981    1928.4329 
  229000  0.086819475  0.023657306    -7.205298    1928.4329 
  230000  0.085316209  0.034852573   -7.2052971    1928.4329 
  231000  0.084840856  0.038369181   -7.2052934    1928.4329 
  232000  0.084055391   0.04531852   -7.2052906    1928.4329 
  233000  0.086517104  0.025999854   -7.2052897    1928.4329 
  234000  0.083582714  0.051220107    -7.205292    1928.4329 
  235000  0.084953745  0.039524022    -7.205295    1928.4329 
  236000  0.083661611  0.049722553   -7.2052956    1928.4329 
  237000  0.084188118  0.043445566   -7.2052965    1928.4329 
  238000  0.084615583  0.040290823   -7.2052961    1928.4329 
  239000  0.084805687  0.037863163   -7.2052941    1928.4329 
  240000  0.084712553  0.042262726   -7.2052953    1928.4329 
  241000  0.085098751  0.037215522   -7.2052946    1928.4329 
  242000  0.084251544  0.044228857   -7.2052944    1928.4329 
  243000  0.085902472  0.030149712   -7.2052984    1928.4329 
  244000   0.08585437  0.030695984   -7.2052977    1928.4329 
  245000  0.084995776  0.038033925    -7.205296    1928.4329 
  246000  0.086265724  0.026791499   -7.2052963    1928.4329 
  247000    0.0830338  0.051822627   -7.2052953    1928.4329 
  248000  0.083727527  0.045700429   -7.2052976    1928.4329 
  249000  0.083621547  0.045487565   -7.2052994    1928.4329 
  250000  0.085918128  0.028340633    -7.205301    1928.4329 
  251000  0.085763122  0.029044058   -7.2053013    1928.4329 
  252000  0.084590077  0.040542375   -7.2053015    1928.4329 
  253000   0.08502879  0.036689725   -7.2053026    1928.4329 
  254000  0.085142603  0.035733241    -7.205301    1928.4329 
  255000   0.08581637  0.031796458   -7.2053008    1928.4329 
  256000  0.084849684   0.03773227   -7.2052995    1928.4329 
  257000  0.081976824  0.059898043   -7.2052995    1928.4329 
  258000  0.085547664  0.031982742   -7.2053027    1928.4329 
  259000  0.084189378  0.042722971   -7.2052996    1928.4329 
  260000  0.085630546   0.03242568   -7.2052994    1928.4329 
  261000  0.084873285  0.039088511   -7.2053014    1928.4329 
  262000  0.085944639  0.028825995   -7.2053052    1928.4329 
  263000  0.085007764  0.036529918   -7.2053031    1928.4329 
  264000  0.084351581  0.042980588   -7.2052995    1928.4329 
  265000    0.0861515  0.028330299    -7.205298    1928.4329 
  266000  0.085487075  0.034214849   -7.2052962    1928.4329 
  267000  0.083337195  0.050715067   -7.2052954    1928.4329 
  268000  0.085584499  0.032857291   -7.2052946    1928.4329 
  269000  0.086607325  0.022716377   -7.2052947    1928.4329 
  270000  0.084683935  0.038320619   -7.2052941    1928.4329 
  271000  0.085989637  0.028979926   -7.2052912    1928.4329 
  272000   0.08477284  0.038430061   -7.2052924    1928.4329 
  273000  0.087111268  0.020795968   -7.2052943    1928.4329 
  274000  0.082816226  0.056568761   -7.2052916    1928.4329 
  275000  0.084496134  0.041951272   -7.2052897    1928.4329 
  276000  0.085007665  0.035880551   -7.2052893    1928.4329 
  277000  0.085282027     0.035733   -7.2052943    1928.4329 
  278000  0.084664145  0.038122137   -7.2052932    1928.4329 
  279000  0.083659981   0.04780066   -7.2052923    1928.4329 
  280000  0.085465276  0.033989394    -7.205292    1928.4329 
  281000  0.084532391  0.041158008   -7.2052928    1928.4329 
  282000  0.084045878  0.045374178   -7.2052907    1928.4329 
  283000  0.087656043  0.017123415   -7.2052935    1928.4329 
  284000  0.084062673  0.043613178   -7.2052916    1928.4329 
  285000  0.083839948  0.044832731   -7.2052916    1928.4329 
  286000  0.084861939  0.039122768   -7.2052938    1928.4329 
  287000   0.08508922  0.036406473   -7.2052926    1928.4329 
  288000  0.084134239  0.045176123   -7.2052915    1928.4329 
  289000  0.085609442  0.033699598    -7.205291    1928.4329 
  290000  0.084477139  0.040849726   -7.2052913    1928.4329 
  291000  0.083809791   0.04811278   -7.2052902    1928.4329 
  292000  0.086880568  0.022396504   -7.2052943    1928.4329 
  293000  0.083184269  0.052313067   -7.2052906    1928.4329 
  294000  0.085776198  0.029533466   -7.2052905    1928.4329 
  295000  0.086547119  0.023922168   -7.2052925    1928.4329 
  296000  0.085477112  0.034588804   -7.2052933    1928.4329 
  297000  0.084283548   0.04303526   -7.2052902    1928.4329 
  298000  0.085873452  0.032474211   -7.2052939    1928.4329 
  299000  0.085860444  0.030486461   -7.2052975    1928.4329 
  300000  0.086437294  0.027186612   -7.2052981    1928.4329 
  301000  0.084337509  0.042762362   -7.2052982    1928.4329 
  302000   0.08369235  0.048673955   -7.2053002    1928.4329 
  303000   0.08423271     0.045457   -7.2052999    1928.4329 
  304000  0.085432909  0.034524392   -7.2052975    1928.4329 
  305000   0.08403017  0.044960222   -7.2052963    1928.4329 
  306000  0.084791077  0.040561918   -7.2052999    1928.4329 
  307000  0.085511736  0.033475751   -7.2052996    1928.4329 
  308000  0.086740055   0.02581428   -7.2053025    1928.4329 
  309000  0.085435828  0.035358841   -7.2052992    1928.4329 
  310000  0.083564729  0.048217467   -7.2052993    1928.4329 
  311000  0.084553822  0.042006714   -7.2052983    1928.4329 
  312000  0.085325086  0.035302833   -7.2053007    1928.4329 
  313000  0.085195632  0.035904758   -7.2052983    1928.4329 
  314000   0.08465662  0.036480921   -7.2052999    1928.4329 
  315000  0.085035091  0.035241018   -7.2053018    1928.4329 
  316000  0.085355454  0.034155602   -7.2052994    1928.4329 
  317000  0.084462067  0.041043677      -7.2053    1928.4329 
  318000  0.084149881  0.043532324   -7.2052985    1928.4329 
  319000  0.085622754  0.032250534    -7.205299    1928.4329 
  320000  0.084252266  0.041975785   -7.2052984    1928.4329 
  321000  0.085742594  0.029159496   -7.2052991    1928.4329 
  322000  0.082520097  0.054222217   -7.2052964    1928.4329 
  323000  0.085670989  0.031448659   -7.2052983    1928.4329 
  324000  0.084981481  0.037819419   -7.2053005    1928.4329 
  325000  0.084173057  0.042698904   -7.2053028    1928.4329 
  326000  0.084211883  0.042461207   -7.2053037    1928.4329 
  327000  0.086098392  0.028194883   -7.2053035    1928.4329 
  328000  0.083685033  0.048829687   -7.2053012    1928.4329 
  329000  0.085587387  0.032977098   -7.2053023    1928.4329 
  330000  0.084613016  0.042699059    -7.205302    1928.4329 
  331000  0.085569932  0.032304296   -7.2053025    1928.4329 
  332000  0.085041454  0.037760226   -7.2053047    1928.4329 
  333000  0.084787572  0.039572054   -7.2053061    1928.4329 
  334000  0.087432505  0.018846435   -7.2053065    1928.4329 
  335000   0.08417334  0.044486655   -7.2053007    1928.4329 
  336000   0.08628805  0.027178965   -7.2053018    1928.4329 
  337000  0.084780211  0.038180831   -7.2053001    1928.4329 
  338000  0.083632769  0.048523127   -7.2052947    1928.4329 
  339000  0.084484488  0.040715442   -7.2052948    1928.4329 
  340000  0.085685896  0.033772692   -7.2052961    1928.4329 
  341000  0.083992174  0.045563658   -7.2052946    1928.4329 
  342000  0.084205675  0.045527646   -7.2052934    1928.4329 
  343000  0.084135191  0.045484057   -7.2052929    1928.4329 
  344000  0.084169619  0.043786012   -7.2052928    1928.4329 
  345000  0.083085775   0.05366075   -7.2052885    1928.4329 
  346000  0.086480003  0.026696943   -7.2052886    1928.4329 
  347000  0.084733373  0.038945705   -7.2052885    1928.4329 
  348000  0.084758964   0.04025075   -7.2052856    1928.4329 
  349000  0.083476886  0.050562337   -7.2052852    1928.4329 
  350000  0.086234081  0.028125156   -7.2052903    1928.4329 
Loop time of 556.862 on 1 procs for 250000 steps with 2048 atoms

Pair  time (%) = 528.294 (94.8698)
Neigh time (%) = 3.59477 (0.64554)
Comm  time (%) = 10.1866 (1.82928)
Outpt time (%) = 0.0125782 (0.00225877)
Other time (%) = 14.7744 (2.65315)

Nlocal:    2048 ave 2048 max 2048 min
Histogram: 1 0 0 0 0 0 0 0 0 0
Nghost:    4035 ave 4035 max 4035 min
Histogram: 1 0 0 0 0 0 0 0 0 0
Neighs:    88064 ave 88064 max 88064 min
Histogram: 1 0 0 0 0 0 0 0 0 0

Total # of neighbors = 88064
Ave neighs/atom = 43
Neighbor list builds = 648
Dangerous builds = 0
#	run             	10000
	unfix 			1
#------SED-------------------------------------------------------------------------
label loop_fft
variable ifft loop ${num_ffts}
variable ifft loop 1

log 	log_SED_${iseed}_${ifft}.lammps
log 	log_SED_1_${ifft}.lammps
log 	log_SED_1_1.lammps
