ITEM: TIMESTEP
733
ITEM: NUMBER OF ATOMS
256
ITEM: BOX BOUNDS
0 6.3386
0 6.3386
0 6.3386
ITEM: ATOMS fx fy fz 
6.32396e-05 0.000285981 -0.00106657 
0.000330512 0.00026426 0.00150328 
-6.52596e-05 0.000588805 -0.00099297 
8.0923e-05 0.000661346 -0.000579102 
-0.00132555 -0.000430904 3.35611e-05 
0.000476046 -0.00212915 -0.000115616 
-0.000167195 -0.00024964 -0.000284605 
-0.00229256 0.000248803 0.000561927 
0.00315616 5.82161e-05 -0.000957085 
-0.00137006 -0.000221682 -0.000967945 
-0.000320687 0.00083659 -0.000121911 
0.00268868 -0.00218022 0.000700254 
0.00129569 -0.000178317 -0.000906359 
0.000705353 0.00125796 -0.000311783 
0.000174282 -0.00017748 0.000625318 
0.000573604 -0.0027511 -0.00203338 
-0.00024997 -0.00049462 0.00180828 
0.00036795 0.000317897 0.0011721 
0.00272043 -0.00138077 -0.000782234 
0.000838378 0.000737685 0.0028807 
0.00131145 0.000730273 -0.00241878 
0.000750962 0.000352582 0.00173175 
-0.000861197 -0.000593776 0.00117938 
-0.00117372 0.00202369 0.00124951 
-0.000410133 0.00112083 -0.000515601 
0.00012504 -0.000540502 2.0961e-05 
0.00118652 -3.87688e-05 -0.000821216 
-0.0025098 0.00111071 -3.52922e-05 
0.00179615 -0.000171131 -0.000186596 
0.00301366 -0.00183195 -0.000176563 
0.00085457 -0.000108021 -0.000868251 
-0.00215312 -2.68588e-05 0.00125733 
-0.000547609 0.00210401 -0.000538132 
0.000833767 9.09469e-06 -0.00109916 
0.000994507 -0.000279263 -0.000653191 
0.00148432 0.000332328 0.000149035 
0.0033601 -0.00186269 0.00204751 
0.000436072 0.000877106 0.000840285 
0.0014918 0.000884561 9.43764e-05 
-0.000794838 0.00228216 0.000901206 
0.000678757 -0.000310619 -0.000317977 
-0.000215204 -0.000285435 -0.000696155 
-0.00114501 0.000160181 -0.00193852 
0.00121558 -0.00103355 0.00059547 
0.00260382 -0.00142092 0.00150976 
-0.00061449 0.000598665 -0.000271921 
8.58045e-05 -0.00240047 0.0017973 
-0.00116536 -0.000624575 -0.000426542 
-0.00141272 0.000293056 0.000191507 
-0.000126133 -0.000459802 -0.000178561 
0.00227859 -0.00233421 0.000858939 
0.000260776 0.000428241 -0.000559813 
-0.00115814 0.000683595 -0.000899342 
0.000514879 0.00055371 -0.000299585 
-0.000620161 -0.000386938 0.000426819 
0.00111425 -0.0015287 0.000338558 
0.000204661 0.0016384 -0.00137965 
9.48878e-05 -0.000244617 -0.00174586 
-0.000796859 0.00168189 -0.00186198 
-0.000440844 -0.000774711 -2.63369e-05 
0.000684595 -0.00259217 -0.00157696 
-0.000517045 0.00040874 -0.000813045 
-0.00251311 0.00155226 -0.000314368 
4.37481e-05 -0.00056566 0.000335138 
-0.000102912 0.00179026 -0.000868846 
-0.000527655 -0.000271259 -0.000793803 
-0.00137642 0.000932406 7.75212e-05 
-0.000889396 -0.00128346 -0.00109863 
0.00101295 -0.000484293 3.79995e-05 
0.00170825 -0.00133892 0.00154229 
0.0024658 -0.000743803 0.000141554 
0.00199095 0.000769486 0.00155178 
0.00114704 0.000222848 0.000695107 
0.000290827 -0.000440442 -0.000627894 
0.000462361 -0.000385471 0.00071806 
-0.000244687 -0.000788124 0.00227361 
-0.00306135 -0.00031452 -0.000171376 
-0.00134954 -0.000487036 0.000662076 
-0.00111968 0.000453872 8.33255e-05 
0.000568645 0.00188043 0.000677954 
0.00083866 -5.0907e-05 -0.000583609 
0.00048045 -0.000152411 -0.000890389 
-0.0018256 -0.000674756 0.00128221 
0.000173844 0.00126475 0.000375531 
0.000180623 0.00146553 2.72101e-05 
-0.00135562 -0.00130606 0.00107135 
-0.00307146 -0.0004385 0.000176207 
0.000557632 -0.000578244 -0.00122963 
0.00194177 0.0006556 0.0013695 
-0.000812633 -0.000390842 0.00212216 
0.000374987 0.000156205 0.000327325 
-0.000640558 0.00215459 -0.000911849 
-0.0019599 0.000276562 -0.00119517 
-0.00260715 -0.000640905 0.00133078 
0.0019947 0.00357358 0.000958218 
-0.00170462 -2.51156e-05 0.000582828 
0.00179061 -0.00083647 0.000814416 
-0.000152373 -0.000856494 0.000748414 
-0.000123815 -0.000956324 0.00068818 
0.00143765 0.00012605 -0.0012121 
-0.000284344 -0.00171062 0.000623828 
-0.000198806 -0.000690042 0.000493354 
0.000207556 -0.000212276 -0.000314609 
-0.00142659 -0.000998872 -7.81503e-05 
0.000209878 -0.000774795 0.000864237 
-0.00110741 0.0010607 0.00135362 
0.00214607 -0.00226992 0.000133113 
-0.000547874 -0.00168192 -0.000454705 
-0.00129211 -0.000923484 0.000897869 
0.000555905 -0.000341989 -0.000232119 
0.00111188 -0.000350135 0.00160147 
-0.00171474 -0.000660688 0.00132121 
-0.00233294 0.00183068 0.0033098 
0.000436635 -0.000153615 0.000721443 
-0.000445596 -0.00153871 0.000631512 
-0.00113506 -0.00169259 -0.00119743 
-0.00116739 0.00107303 0.000640523 
0.00024833 -0.00129176 0.00176729 
-0.000115829 -0.00123349 0.00131111 
0.000893674 0.000955631 -0.000504605 
0.000130071 0.000385984 -0.000827173 
8.0642e-05 0.00154896 -0.000294182 
0.000489085 0.000243725 -1.98902e-05 
-0.00174673 0.000944516 0.000827986 
6.46036e-05 -0.00225358 -0.000978185 
-0.000575905 -2.31781e-05 0.00226119 
-0.00111292 -0.000546232 0.000614914 
-0.00119855 0.000368094 -0.0014373 
-0.000361973 -0.000146698 -0.00161179 
0.00070097 -0.000514099 0.00065684 
-0.000124159 -0.000949999 -0.00188063 
-0.000563653 -0.000445383 0.000643234 
-0.00117217 -0.000892668 -0.000462582 
-0.000937447 0.00208677 -0.000142014 
-0.00177498 -0.0016223 -0.000356936 
-0.00146129 -0.00037791 -0.0018745 
-0.0010789 -0.00140057 0.00206216 
-0.000742461 0.000684601 -0.00152149 
0.000781916 -0.000952567 0.000397071 
0.00081591 0.00135931 -0.000484307 
1.10244e-06 0.00162048 0.000616735 
0.000431322 -0.00126533 -0.000774406 
-0.000294202 -0.00116998 -0.00121879 
0.000245418 0.000232541 6.81354e-05 
0.00111853 0.000499658 -0.000387221 
0.000552289 -0.00181045 0.00069545 
-0.00106314 0.00308192 -6.25986e-05 
6.16609e-05 0.00139231 0.000876985 
-0.000668216 0.000162597 1.90987e-05 
-0.000278126 -0.000852712 0.0012021 
-0.00221307 0.00120173 0.00168259 
-0.000561116 0.00221912 -0.000651808 
-0.0012753 -0.000309702 -0.00098546 
2.88158e-05 -0.000365549 -0.000321601 
-0.000663329 -0.000642428 0.00056616 
0.000106811 0.000176855 -0.00122952 
0.000548643 -0.0016115 -0.000660304 
9.9741e-05 -0.000678387 -0.000533728 
-0.000211951 -9.08739e-05 -0.000356787 
-0.00128695 0.00453644 0.0011025 
-0.000920676 -0.000904749 0.000424275 
-0.0018737 -1.87472e-05 -0.00160253 
7.97664e-05 0.00216525 0.0005583 
-0.00119642 -0.000990544 0.0014646 
0.00205484 -0.000123547 -0.000427151 
-0.00038915 0.000231075 -0.00123323 
-0.00183641 -0.00052118 -0.001024 
0.000452292 0.000303026 -0.00132912 
0.000575477 -0.000551446 0.000147013 
0.000989941 0.00334303 -0.000390799 
0.000737559 -0.0010602 0.000300167 
0.0021722 -0.000383341 -0.000953083 
0.0010869 0.00189447 0.00124765 
-0.00119228 0.00123725 -0.000619363 
0.00149712 0.00115199 -0.00148117 
-6.46686e-05 -0.000933189 6.31857e-05 
0.00215394 0.000503194 0.00115822 
-3.90948e-05 0.00173538 -0.000912664 
0.00180712 -0.00055888 0.000278159 
-0.00101016 0.000482954 -0.00116336 
0.00125227 -0.000726807 -0.000275265 
-0.00313544 0.00174581 -4.09191e-05 
-0.00129605 -0.000218816 -0.00155148 
0.000162801 0.000153816 -0.00189144 
0.00407401 -0.000980557 -0.00177255 
2.69068e-05 0.000368459 -0.000446051 
0.00049377 0.000944237 0.0017813 
-0.00138923 0.00138127 0.000400763 
-0.000481148 -0.0012877 0.000899393 
0.000693656 -0.00043363 0.000381917 
0.000571696 0.000682597 0.000272983 
-0.000849534 -0.000732317 -0.00034843 
-0.000870501 -0.000538589 0.0014045 
0.000373955 -0.00119495 0.000278135 
0.000543053 -0.000104554 0.000418895 
0.000479644 0.000747144 -0.000588818 
0.00073823 0.00085253 -0.00109917 
0.00128595 8.79407e-05 0.000482616 
-0.00123944 -0.000436436 0.00255813 
-0.00039061 -0.000444912 -0.0012317 
0.000317789 -0.00157935 -0.000248385 
0.00218719 0.00165113 0.0036251 
-7.60787e-05 -0.000379043 -0.00127372 
-0.00112648 0.000689492 0.000186979 
-0.000196581 -0.00112271 -0.000343333 
-5.78774e-05 -0.000274228 -0.000899416 
0.000188442 -0.000624665 0.00015403 
-0.00123347 0.00051474 -0.00252856 
-0.000747059 0.000977613 -0.000370901 
-0.000278413 -0.000623961 0.00181151 
0.000375367 0.00105598 -3.66787e-05 
0.00169812 0.000357811 0.000247486 
0.000596554 0.00147628 -0.000372488 
0.000101696 0.00017782 -0.000269743 
0.00133314 -0.000543127 -0.000337698 
-0.00118348 5.14451e-05 0.000611632 
1.92494e-05 0.00152331 -0.0013869 
-0.000504582 -0.00160668 0.00333834 
0.000210291 -0.000852689 0.000204028 
0.00103702 0.00135616 0.00013481 
0.00154997 0.0025064 -0.00177675 
0.000135441 0.00350892 0.000915594 
-0.00135414 0.000332086 -0.00262819 
-0.00116147 0.000691178 0.000169871 
0.000380616 0.00150477 5.57767e-05 
0.000184273 -0.000717486 -0.00261698 
-0.000514392 0.00100496 0.0014979 
0.0010694 -0.00103962 0.000399933 
-0.000933253 -0.000681879 0.000100827 
0.000286042 -0.00117378 0.00139926 
5.56135e-06 -0.000830558 -0.000299039 
-0.00122579 0.00187919 -0.000918568 
-0.000740072 0.00212037 -0.00137662 
-0.000720428 0.000457011 -0.000509519 
-0.000668822 -0.000986131 -0.000627282 
0.00162398 -0.000432561 0.00127744 
2.13621e-05 -0.000459112 -0.000631685 
-0.000218004 -0.00160899 0.000957714 
0.00335499 -0.001436 -0.000304937 
-0.000546868 -0.000721215 0.000559346 
-0.00040787 -0.00103908 -0.000600393 
0.00044634 -0.00105901 -0.000779204 
-0.000855887 -4.8082e-05 -0.000239136 
-4.16814e-05 0.000366583 -0.00102741 
0.000737514 0.00126217 -0.000612772 
0.00137359 -0.00144098 0.000887179 
-0.000974017 -0.000494183 -0.000266746 
0.00127207 0.0012945 -0.00223896 
0.000105163 0.000156913 -0.000110766 
0.00124744 0.000829208 -0.000861524 
-0.0023211 -0.000674937 0.000354235 
-0.000344438 -0.000316302 0.000664979 
-0.00126438 0.000459446 -0.000217251 
-0.000216956 -0.000219684 0.00065432 
0.000997942 -0.00100838 -0.00112797 
-0.000419859 -4.82555e-05 -0.000439028 
ITEM: TIMESTEP
734
ITEM: NUMBER OF ATOMS
256
ITEM: BOX BOUNDS
0 6.3386
0 6.3386
0 6.3386
ITEM: ATOMS fx fy fz 
6.35208e-05 0.000289598 -0.00106849 
0.000326742 0.000262897 0.00149861 
-6.94744e-05 0.000589895 -0.000991281 
8.23647e-05 0.000654022 -0.000580577 
-0.00132221 -0.000421039 3.1111e-05 
0.000480231 -0.00211912 -0.000116047 
-0.000168271 -0.000250194 -0.000282407 
-0.00229051 0.000249741 0.000559507 
0.00314433 5.37125e-05 -0.000955625 
-0.00136912 -0.000223066 -0.000967569 
-0.000315828 0.000832239 -0.000120742 
0.00266722 -0.00216466 0.000693334 
0.00129369 -0.000171194 -0.000903646 
0.000705129 0.00125653 -0.000307047 
0.000175615 -0.000179153 0.000622225 
0.000568644 -0.00274343 -0.00202795 
-0.000246949 -0.000489098 0.00180127 
0.000361376 0.000316806 0.00116744 
0.00271642 -0.00137723 -0.000780496 
0.000835827 0.000727662 0.0028726 
0.00130796 0.000724954 -0.00241086 
0.000748328 0.000359937 0.00172787 
-0.000846713 -0.000592021 0.00117996 
-0.00117176 0.00202308 0.00124601 
-0.000407972 0.00111822 -0.000513903 
0.000123893 -0.000539535 2.18772e-05 
0.00118271 -3.76751e-05 -0.000818072 
-0.00250436 0.00110664 -4.41977e-05 
0.00178968 -0.000174273 -0.000186238 
0.00299277 -0.00182657 -0.00016932 
0.000852027 -0.000109122 -0.000870221 
-0.00214862 -2.24031e-05 0.00125882 
-0.000547764 0.0020916 -0.000534379 
0.000834062 1.13357e-05 -0.00109462 
0.000991878 -0.000279957 -0.00065041 
0.00148892 0.000335716 0.000146755 
0.0033259 -0.0018438 0.00202661 
0.000435074 0.000873098 0.000833126 
0.00148119 0.000877779 0.000101041 
-0.000800733 0.00227589 0.000907777 
0.000679566 -0.000311627 -0.000317144 
-0.000212804 -0.000283162 -0.000692537 
-0.00114295 0.000162911 -0.00192944 
0.00121283 -0.00102724 0.000595009 
0.00259542 -0.00141383 0.00150449 
-0.000614566 0.000599455 -0.000269893 
8.55843e-05 -0.00238332 0.00178666 
-0.00115974 -0.000623639 -0.00042468 
-0.00141104 0.00029076 0.000190853 
-0.000126328 -0.000457032 -0.000175088 
0.00227209 -0.00233311 0.000855562 
0.000259594 0.000425099 -0.000563461 
-0.00116026 0.000680271 -0.000893042 
0.00052113 0.000545487 -0.000301323 
-0.000618127 -0.000382399 0.000431829 
0.00111694 -0.00152315 0.000338068 
0.000205622 0.00162318 -0.00135854 
0.000100057 -0.000241019 -0.00173844 
-0.000787034 0.00165062 -0.00183873 
-0.00043517 -0.000769022 -3.17533e-05 
0.000679628 -0.00257397 -0.00157231 
-0.000511515 0.000406445 -0.000806417 
-0.00249948 0.0015462 -0.000322811 
4.33486e-05 -0.000563972 0.000334257 
-9.79911e-05 0.00177397 -0.000861516 
-0.000520392 -0.000272128 -0.000789236 
-0.00137631 0.000934349 7.20804e-05 
-0.000877707 -0.00127313 -0.00109245 
0.00101135 -0.00048276 4.06074e-05 
0.00169615 -0.00131807 0.00153098 
0.00245248 -0.000732014 0.00013662 
0.0019801 0.000768641 0.00154666 
0.00114632 0.000220622 0.000695136 
0.000290288 -0.000441028 -0.000623357 
0.000461031 -0.000388779 0.000714678 
-0.00024396 -0.000788732 0.00226432 
-0.00304792 -0.000312161 -0.000168613 
-0.00134909 -0.000484854 0.000664673 
-0.00111548 0.000453576 7.46801e-05 
0.000568395 0.00187259 0.000675827 
0.000838655 -5.44528e-05 -0.000579068 
0.000479162 -0.00015097 -0.000884534 
-0.00182045 -0.000676415 0.00127444 
0.000177034 0.00125768 0.000371731 
0.000183403 0.0014583 3.15384e-05 
-0.00135188 -0.0012999 0.0010621 
-0.0030611 -0.000431901 0.000172975 
0.0005529 -0.00057546 -0.00122213 
0.00193171 0.000649998 0.00136946 
-0.000800148 -0.0003896 0.00211914 
0.000371019 0.000152712 0.000322402 
-0.000636913 0.00214358 -0.000908485 
-0.0019576 0.00027567 -0.00118993 
-0.00259965 -0.000642849 0.00133014 
0.00198679 0.00352389 0.000946773 
-0.00169741 -2.24466e-05 0.000586044 
0.00177601 -0.000825809 0.000808577 
-0.000154634 -0.00085306 0.000746668 
-0.000122121 -0.000951996 0.000687917 
0.00142948 0.000130233 -0.00121158 
-0.000283042 -0.00169135 0.000618536 
-0.000201172 -0.000682233 0.000488511 
0.000208594 -0.000213625 -0.000316021 
-0.00142305 -0.000997291 -7.80912e-05 
0.0002089 -0.000770959 0.000861175 
-0.0011071 0.00105556 0.00135306 
0.00214144 -0.00226769 0.000135294 
-0.000535171 -0.00167365 -0.000452554 
-0.0012889 -0.000918467 0.000892916 
0.000556958 -0.000345334 -0.000236242 
0.0011061 -0.000346003 0.00159378 
-0.00171212 -0.000660138 0.00131946 
-0.00232956 0.00183002 0.00328382 
0.000435713 -0.000148223 0.00071977 
-0.000444481 -0.00153463 0.000628644 
-0.00113307 -0.0016472 -0.00118729 
-0.00116174 0.00107051 0.00064074 
0.00024809 -0.00128664 0.00176428 
-0.000115278 -0.00122347 0.00130294 
0.000890017 0.000951985 -0.000505936 
0.000128022 0.000384657 -0.000826444 
7.74655e-05 0.00154324 -0.000297091 
0.000484972 0.000245556 -1.8481e-05 
-0.00172784 0.000940198 0.000814609 
6.68465e-05 -0.00224544 -0.000976638 
-0.000569421 -1.69995e-05 0.0022498 
-0.00110979 -0.000545508 0.000614348 
-0.00119758 0.000365864 -0.00143708 
-0.000364678 -0.000141478 -0.00160245 
0.000698905 -0.000513164 0.00065478 
-0.000122341 -0.000948069 -0.00187484 
-0.000560391 -0.000446949 0.000646703 
-0.00117383 -0.000888685 -0.000457603 
-0.000934956 0.00208352 -0.000141991 
-0.00177213 -0.00161927 -0.000357203 
-0.0014463 -0.000372627 -0.00185527 
-0.00107997 -0.00138639 0.00206691 
-0.000740519 0.000683222 -0.0015163 
0.000780085 -0.000947959 0.00039628 
0.000812541 0.00135642 -0.000483284 
8.58783e-06 0.00161627 0.000617266 
0.000431904 -0.00126643 -0.000773071 
-0.000291693 -0.00116382 -0.00120398 
0.000244756 0.000230898 6.80262e-05 
0.00111561 0.000496928 -0.000382794 
0.000546304 -0.00181193 0.000690786 
-0.0010598 0.00307214 -5.92263e-05 
5.89332e-05 0.00138722 0.000869023 
-0.000667563 0.00016547 2.02161e-05 
-0.000279689 -0.000846258 0.00119651 
-0.00221213 0.00119836 0.00168153 
-0.000559701 0.00220324 -0.000646183 
-0.00126492 -0.000318344 -0.000979805 
2.91079e-05 -0.000364839 -0.000319231 
-0.000661692 -0.000642584 0.00056501 
0.000109123 0.00017473 -0.00122209 
0.00054644 -0.00160054 -0.000658752 
0.000108559 -0.000678804 -0.00053404 
-0.000214855 -8.71783e-05 -0.000356914 
-0.00126707 0.00451157 0.00109037 
-0.000916757 -0.000900482 0.000415092 
-0.0018621 -2.03819e-05 -0.00159714 
7.98395e-05 0.0021598 0.000559602 
-0.00119213 -0.000989775 0.00145837 
0.00204694 -0.000121548 -0.000429011 
-0.00038714 0.000229175 -0.00122859 
-0.0018262 -0.000522521 -0.00101826 
0.000449781 0.000297687 -0.00132547 
0.000573774 -0.000550799 0.000148092 
0.000984344 0.00332226 -0.000396846 
0.000739656 -0.00105809 0.000297597 
0.0021534 -0.000372035 -0.000954193 
0.00107662 0.00189044 0.00124186 
-0.0011863 0.00123392 -0.00061885 
0.00149184 0.00114331 -0.00147812 
-6.64793e-05 -0.000931351 6.01437e-05 
0.00215216 0.000496501 0.00115374 
-3.38767e-05 0.0017313 -0.000913533 
0.00181135 -0.000560581 0.000270122 
-0.00100873 0.000476198 -0.00115403 
0.00125433 -0.000723214 -0.000276276 
-0.00310979 0.00173604 -3.16505e-05 
-0.00129429 -0.000219022 -0.00155008 
0.000156619 0.000157941 -0.00187294 
0.00404222 -0.000959826 -0.0017552 
3.05077e-05 0.000366468 -0.000443 
0.000496159 0.000936994 0.00178025 
-0.0013813 0.00138152 0.000395731 
-0.00047559 -0.00128192 0.00089568 
0.000696338 -0.000435276 0.000381375 
0.000571001 0.00067685 0.000276964 
-0.000840698 -0.000729487 -0.000344636 
-0.000866226 -0.000541603 0.00140205 
0.000369082 -0.00119553 0.000274068 
0.000540591 -0.000104643 0.000417369 
0.000473882 0.000739222 -0.000585101 
0.000730897 0.000848547 -0.0011041 
0.00128291 8.66849e-05 0.000486627 
-0.00121239 -0.000432818 0.00254208 
-0.000389928 -0.000445683 -0.00122391 
0.000317669 -0.00157384 -0.000245036 
0.00215787 0.00163939 0.00359357 
-7.82297e-05 -0.000374241 -0.00127023 
-0.00112762 0.000688628 0.000187286 
-0.000190412 -0.00111872 -0.00034311 
-5.9193e-05 -0.000273844 -0.000897229 
0.000190149 -0.000622836 0.00015033 
-0.00122701 0.000514136 -0.0025245 
-0.000746163 0.000975921 -0.000371524 
-0.00027491 -0.000623372 0.00180006 
0.000370431 0.00105237 -3.45921e-05 
0.00169168 0.00036016 0.000246949 
0.000596784 0.00147261 -0.000367842 
9.83817e-05 0.000177098 -0.000268414 
0.00132838 -0.000540301 -0.000340431 
-0.00117576 5.39267e-05 0.000605773 
1.10773e-05 0.00151476 -0.00138302 
-0.000514158 -0.00161161 0.00332913 
0.000208325 -0.000849333 0.000205316 
0.00104591 0.00134286 0.000124852 
0.00154287 0.0024897 -0.00175618 
0.000131951 0.00350541 0.000915973 
-0.0013524 0.000328273 -0.00261058 
-0.00115775 0.00069372 0.000169744 
0.000380766 0.00150306 5.58877e-05 
0.000183887 -0.000733349 -0.00260468 
-0.000505969 0.000995245 0.00147788 
0.00106652 -0.00103557 0.000390316 
-0.00092882 -0.000681235 9.73669e-05 
0.000285989 -0.00116724 0.00139409 
4.40678e-06 -0.000828645 -0.000296858 
-0.00122753 0.00187839 -0.000914381 
-0.000739388 0.00210626 -0.00137115 
-0.000714909 0.000456087 -0.000512585 
-0.00066669 -0.000981934 -0.000624834 
0.00162426 -0.000436529 0.0012776 
1.97457e-05 -0.00045756 -0.000633177 
-0.000223233 -0.00160678 0.000952843 
0.00335431 -0.00141996 -0.000307222 
-0.000548618 -0.000718186 0.000557412 
-0.00041236 -0.00103715 -0.000601886 
0.00044575 -0.00105945 -0.000779524 
-0.000857252 -4.77642e-05 -0.000237885 
-4.1513e-05 0.000367189 -0.00102132 
0.000728701 0.00125199 -0.000608378 
0.00136877 -0.00143525 0.000884449 
-0.000964203 -0.000479441 -0.000250955 
0.00125289 0.00128726 -0.00222326 
0.000101992 0.000159377 -0.000114975 
0.00124011 0.000826655 -0.000855129 
-0.00231786 -0.000671801 0.000355247 
-0.000345484 -0.000316504 0.00066343 
-0.00126439 0.000455951 -0.000218007 
-0.000216962 -0.000218783 0.000653634 
0.00100019 -0.00100557 -0.00112639 
-0.000415253 -5.03714e-05 -0.000436161 
