
256 atoms
1 atom types	

0.0 6.3386 xlo xhi
0.0 6.3386 ylo yhi
0.0 6.3386 zlo zhi

Masses

1 1.0

Atoms				

1	1	0.61744	4.6068	1.0835
2	1	6.0126	0.92556	0.44436
3	1	1.6594	4.7955	3.7525
4	1	3.6329	5.06	3.8527
5	1	2.8394	3.2795	2.8014
6	1	4.0228	2.9452	4.4021
7	1	4.3834	1.0989	3.2766
8	1	0.19934	0.54329	3.1837
9	1	0.55434	3.4117	4.1615
10	1	3.9619	1.2071	2.3868
11	1	4.2216	2.0316	0.58738
12	1	0.65235	4.8694	5.3644
13	1	0.91841	4.4079	4.3926
14	1	1.8762	4.5827	4.8248
15	1	5.6765	2.5346	1.1172
16	1	4.116	2.8948	5.5068
17	1	4.5511	4.6252	4.195
18	1	1.1401	2.9618	3.2067
19	1	3.3014	1.1264	4.4799
20	1	4.8472	0.11796	5.0105
21	1	5.5713	4.5406	4.4035
22	1	0.26056	5.8533	3.0528
23	1	4.2527	5.6411	4.4962
24	1	1.6404	6.1673	2.1543
25	1	2.6806	3.3145	0.45625
26	1	3.4386	3.8443	6.0543
27	1	1.9826	5.8686	3.943
28	1	0.21468	5.6638	1.2885
29	1	0.11647	3.0796	0.5154
30	1	5.8255	6.1646	0.36305
31	1	2.1581	1.1629	4.6122
32	1	0.81038	1.0068	2.0638
33	1	2.7377	2.2291	3.2113
34	1	0.075587	4.0644	4.8833
35	1	5.2481	5.747	5.7688
36	1	1.2161	1.9883	5.4786
37	1	3.8918	4.4656	5.1994
38	1	5.9079	5.0073	5.284
39	1	4.2768	4.7366	2.2708
40	1	0.45722	1.118	2.1541
41	1	3.6224	2.8766	0.17477
42	1	0.72141	3.5373	1.302
43	1	3.8115	0.34095	0.64165
44	1	5.9694	2.511	3.9314
45	1	6.135	6.2044	4.0226
46	1	2.1744	6.088	1.2523
47	1	4.3071	4.843	2.1795
48	1	1.4273	1.6064	0.17465
49	1	4.9332	0.4163	0.63308
50	1	5.9486	5.6701	2.2121
51	1	4.2766	3.9482	1.5523
52	1	4.4127	2.0213	4.8361
53	1	5.0828	1.3248	2.3454
54	1	2.9903	1.3523	5.4835
55	1	1.0139	3.8218	5.3668
56	1	0.88167	6.117	3.9017
57	1	2.6256	3.9543	4.2895
58	1	0.92876	2.9286	6.0564
59	1	2.9071	4.8154	5.0713
60	1	6.0813	4.0451	0.83672
61	1	4.5659	2.5303	3.5542
62	1	0.06644	3.2926	3.2561
63	1	1.3095	4.7908	2.7978
64	1	3.7186	2.1899	2.8844
65	1	5.3083	4.0907	1.6923
66	1	5.3265	4.8361	2.4952
67	1	2.8838	1.4017	2.5767
68	1	2.3606	5.0953	2.9943
69	1	5.0773	1.1759	5.1483
70	1	3.1556	5.804	4.5144
71	1	5.4973	3.9898	5.3387
72	1	3.8261	5.8272	2.1355
73	1	6.2136	1.4811	3.7813
74	1	1.1214	2.6423	0.69833
75	1	1.652	0.18741	4.8473
76	1	1.9039	2.5474	6.1052
77	1	3.3857	4.4188	0.682
78	1	5.7463	0.41641	2.2649
79	1	2.6353	2.0279	4.2377
80	1	1.2007	1.4714	4.2249
81	1	5.7888	1.5225	5.9448
82	1	1.6311	2.3986	4.4798
83	1	5.4979	1.9691	3.1227
84	1	3.9319	3.0463	2.1602
85	1	5.1802	1.7209	4.1189
86	1	2.1562	5.132	1.8399
87	1	0.20265	2.2628	2.9842
88	1	3.1438	3.0263	3.838
89	1	0.14313	4.2794	3.7624
90	1	1.6037	3.5647	4.4114
91	1	1.7556	0.52736	0.53612
92	1	0.53935	3.0809	2.3278
93	1	6.2027	1.3629	2.5007
94	1	3.2507	5.883	1.2407
95	1	1.7416	3.0231	5.3564
96	1	0.04426	3.4305	5.8001
97	1	4.1807	4.4421	3.1995
98	1	1.7591	3.607	6.2264
99	1	2.6749	0.34355	4.0332
100	1	0.79711	1.3438	3.2086
101	1	0.075128	0.36493	5.9431
102	1	5.9009	3.8616	2.5287
103	1	4.9415	2.016	1.495
104	1	2.7678	5.8449	2.3042
105	1	5.637	2.0642	5.0323
106	1	1.089	0.3324	2.9446
107	1	3.7183	3.9692	4.1227
108	1	3.1253	4.4493	6.1273
109	1	2.583	0.90183	0.96342
110	1	3.3732	0.29397	2.7845
111	1	2.8053	6.1378	0.28066
112	1	5.396	0.88706	3.2771
113	1	1.3039	0.38948	1.2804
114	1	0.59138	4.1434	2.1886
115	1	5.5406	0.69655	4.3084
116	1	2.4296	3.8824	5.413
117	1	3.1166	5.8742	5.6091
118	1	4.036	5.8181	3.1765
119	1	2.2683	1.4967	0.85062
120	1	1.4976	4.3145	1.6296
121	1	2.7883	2.0189	1.0248
122	1	1.7715	1.1334	2.6498
123	1	0.14	2.3193	5.7021
124	1	2.7351	0.38496	5.0915
125	1	4.6872	2.296	2.515
126	1	2.5425	2.9776	4.7042
127	1	3.7925	5.6587	0.31342
128	1	5.1974	2.9796	5.5009
129	1	2.412	1.2331	3.5318
130	1	3.9313	2.0535	1.7531
131	1	0.74069	5.2953	2.1792
132	1	5.3565	0.51988	5.9501
133	1	2.5653	5.1839	0.76085
134	1	2.6162	4.9985	4.0622
135	1	0.42069	2.4534	1.4935
136	1	0.58168	6.1575	0.39495
137	1	0.79659	5.1054	0.1573
138	1	6.0731	3.2934	1.6255
139	1	2.5896	0.51794	2.0681
140	1	3.4651	0.49619	5.9782
141	1	0.77368	2.8203	4.9822
142	1	1.6357	4.5971	0.60628
143	1	5.3158	4.7317	6.1308
144	1	4.3087	1.1549	1.2071
145	1	4.8809	5.2861	3.4238
146	1	4.1882	3.7493	0.51497
147	1	2.7943	0.56691	1.0112
148	1	1.4131	2.7877	1.7153
149	1	2.1026	2.9378	3.685
150	1	0.28056	1.9787	0.45016
151	1	5.4516	6.1786	1.3862
152	1	0.68787	5.0816	3.5882
153	1	4.6126	3.7328	4.8107
154	1	1.7169	3.5216	0.93347
155	1	2.4716	4.2273	2.3369
156	1	5.531	6.1419	3.1252
157	1	0.94199	0.95644	5.1063
158	1	4.8618	4.8633	5.18
159	1	5.5049	3.6648	2.2221
160	1	1.5575	4.5963	5.8653
161	1	6.1403	4.7332	1.7295
162	1	3.4992	1.1368	3.4182
163	1	0.32846	1.8338	4.7633
164	1	3.3383	3.4675	1.3093
165	1	4.6835	2.8881	0.11154
166	1	3.8686	3.3544	3.1594
167	1	1.1276	0.40014	6.0089
168	1	5.2384	3.3029	0.92745
169	1	4.1137	5.5041	5.5653
170	1	0.50982	1.3307	5.9877
171	1	4.9143	5.5443	0.44684
172	1	5.332	5.5799	4.4844
173	1	2.2171	5.6399	5.007
174	1	1.6498	1.9908	3.3956
175	1	5.3716	3.0511	3.0406
176	1	5.0244	4.3867	0.7318
177	1	3.3856	3.5311	5.0301
178	1	4.035	1.1424	5.311
179	1	3.2947	4.9226	6.0544
180	1	2.0969	1.8436	1.8835
181	1	6.1733	0.97167	5.1089
182	1	0.17637	5.3182	4.4972
183	1	3.616	0.45448	1.7082
184	1	3.5444	4.0378	2.3415
185	1	2.2769	2.0919	5.3122
186	1	5.9013	6.253	5.0921
187	1	4.3966	0.97495	4.2748
188	1	0.94238	4.0121	3.3003
189	1	5.702	3.5399	4.0639
190	1	3.2333	4.8844	1.694
191	1	4.1685	4.9743	1.1067
192	1	1.2443	5.4229	4.6093
193	1	4.866	5.8101	2.353
194	1	4.5499	3.8419	5.8572
195	1	2.4971	4.2042	1.224
196	1	2.9853	5.8409	3.4286
197	1	2.5099	4.3136	0.076683
198	1	0.61182	6.2449	5.0104
199	1	3.0656	4.2229	3.3205
200	1	3.3965	5.0565	2.7513
201	1	1.6021	0.58146	3.838
202	1	2.0402	3.9182	3.3094
203	1	1.0787	2.0227	2.3862
204	1	0.059504	1.4645	1.3999
205	1	3.3501	2.2886	5.0012
206	1	1.9854	2.6444	2.6008
207	1	4.7247	3.8175	2.5772
208	1	5.8048	2.376	1.0517
209	1	4.4159	0.75054	6.0859
210	1	6.085	3.0129	4.8821
211	1	5.8303	2.3306	2.1452
212	1	1.8636	1.1078	5.6292
213	1	2.8289	2.9287	5.7683
214	1	4.4558	0.44297	2.9794
215	1	5.2008	1.6234	0.50675
216	1	5.3553	4.2939	3.3768
217	1	1.7546	0.85418	1.5596
218	1	4.5005	1.4972	3.2923
219	1	3.2222	2.3687	1.0124
220	1	4.817	3.7418	3.8958
221	1	2.1096	0.038949	5.8606
222	1	1.301	5.397	1.2701
223	1	5.9469	5.1004	0.60983
224	1	3.104	1.4241	1.5532
225	1	2.98	2.4344	2.1008
226	1	4.6838	3.5877	3.7598
227	1	0.082444	5.6469	5.9159
228	1	1.6355	5.8111	0.35162
229	1	5.0727	2.788	4.4608
230	1	3.7366	0.19355	3.9065
231	1	4.2669	2.9025	1.1615
232	1	1.0749	0.098058	1.2828
233	1	0.73675	0.92003	0.64982
234	1	5.9034	5.2376	3.6218
235	1	2.2183	0.17171	3.0343
236	1	1.2842	5.6912	5.6725
237	1	0.69251	2.3542	3.9267
238	1	4.676	0.43338	1.9244
239	1	2.3045	5.3127	6.0309
240	1	1.1904	1.725	1.2652
241	1	4.3799	6.008	1.2489
242	1	5.0546	3.0614	1.9245
243	1	2.3811	3.2835	1.7853
244	1	3.4306	1.3278	0.52034
245	1	0.80394	3.9121	0.24891
246	1	3.7624	1.9575	5.9529
247	1	1.5252	3.5993	2.4167
248	1	1.4658	4.6604	2.6453
249	1	1.4131	5.6536	3.0504
250	1	3.7943	0.16459	4.9975
251	1	5.4312	1.0078	1.3823
252	1	5.1652	5.1669	1.4774
253	1	3.7051	2.0156	3.9753
254	1	2.1712	2.5304	1.013
255	1	0.44634	0.70102	4.206
256	1	4.8255	1.9958	5.8479
