ITEM: TIMESTEP
733
ITEM: NUMBER OF ATOMS
256
ITEM: BOX BOUNDS
0 6.3386
0 6.3386
0 6.3386
ITEM: ATOMS xu yu zu 
0.619475 4.68216 1.252 
6.02113 0.874007 0.516506 
1.52075 4.93033 3.71387 
3.64737 5.09609 3.80348 
2.84743 3.34982 2.78301 
3.98172 2.93475 4.35412 
4.83665 -0.0284563 3.81416 
0.0484395 0.463556 3.28114 
0.553939 3.35148 4.3468 
3.8567 1.11052 2.20432 
4.15099 2.01597 0.556457 
0.726667 4.88204 5.34675 
0.986364 4.34878 4.41522 
1.90712 4.54925 4.91703 
5.61831 3.25795 0.997666 
4.30399 2.64649 5.3828 
4.41595 4.73492 4.50386 
1.08107 2.75794 2.9481 
3.39583 1.17462 4.3016 
4.81684 0.0698689 5.02371 
5.44962 4.48127 4.47491 
0.294174 5.76738 3.08705 
4.1614 5.77047 4.44875 
1.56229 6.27176 2.05064 
2.89566 3.36615 0.639307 
3.39211 3.88135 6.1719 
2.05166 5.9134 3.91129 
0.195505 5.67523 1.24002 
0.17549 3.0196 0.381461 
5.89281 6.12239 0.241898 
2.1823 1.26822 4.46732 
1.07496 0.966095 2.06086 
2.82022 2.36243 3.09877 
0.0540354 4.13914 4.88784 
5.39338 5.56409 5.6852 
1.26957 1.81421 5.30957 
3.93165 4.35071 5.37492 
6.02787 4.59897 5.8038 
4.42803 4.81035 2.6437 
0.30509 0.156629 2.26377 
3.75451 2.90868 0.0400336 
0.79119 3.65701 0.988586 
3.75761 0.247686 0.541979 
5.94576 2.44807 3.98698 
6.16142 6.06049 4.10382 
2.30777 6.06829 1.30243 
4.92922 5.1276 1.75776 
1.50288 1.49417 0.0337113 
5.05224 0.439959 0.777419 
5.89996 5.74549 2.09189 
4.25298 4.27547 1.71553 
4.33446 1.89941 4.59486 
4.88249 1.40323 2.40206 
3.02532 1.29525 5.26865 
0.994496 3.82528 5.36687 
0.974763 6.14646 3.88749 
2.51285 3.94727 4.28766 
0.939192 2.37848 6.20162 
3.37273 5.05138 4.8404 
6.18111 4.0725 0.616621 
4.67052 2.42889 3.63957 
0.189654 3.1946 3.37289 
0.604443 4.75991 3.09289 
3.82149 2.06367 2.74473 
5.3162 4.16747 1.99661 
5.47094 5.01037 2.70964 
2.87553 1.47736 2.47169 
2.32354 5.15937 2.96141 
5.09015 1.09288 5.1857 
3.1101 5.93181 4.35577 
5.49283 3.71134 5.23904 
3.92988 5.57269 2.02984 
6.27337 1.44307 3.78969 
1.0478 2.62221 0.879032 
1.62689 0.134324 4.77815 
1.96504 2.49732 6.60528 
3.32063 4.63029 0.648264 
5.59771 0.454189 2.36282 
2.57164 2.24334 4.14662 
1.12015 1.44057 4.26801 
5.73794 1.4509 6.03195 
1.57342 2.43719 4.4932 
5.47275 1.89917 3.15411 
3.87065 3.00449 2.19432 
5.27508 1.61482 4.18309 
2.0901 5.11119 1.81841 
0.145784 2.17072 3.00344 
3.04982 3.14834 3.86744 
0.0764794 4.20983 3.79804 
1.60623 3.48794 4.5693 
2.243 0.705001 0.147191 
0.223761 2.96126 2.30534 
6.36091 1.21101 2.50577 
3.31608 5.67323 1.1195 
1.72403 2.74865 5.59155 
0.045288 3.51229 5.80275 
4.19722 4.24833 3.50224 
1.23165 3.40453 6.33472 
2.7391 0.432414 3.78339 
0.861121 1.36754 3.19169 
0.146192 0.427596 5.93567 
6.03652 3.89192 2.74682 
5.13316 2.32013 1.34311 
2.85824 5.79058 2.19337 
5.57427 2.01145 5.13182 
1.08047 0.33823 2.9503 
3.5947 4.00379 4.39081 
2.88435 4.19976 5.23935 
2.54934 1.70577 -0.206771 
3.34936 0.262925 2.70535 
2.81956 6.07532 0.256788 
5.38057 0.840522 3.32381 
0.795357 0.2125 1.33759 
0.738757 3.88192 2.43389 
5.57685 0.590593 4.32722 
2.08269 3.69283 5.63756 
3.23138 5.90019 5.51966 
4.06035 5.80341 3.08414 
2.28816 1.53173 0.808491 
1.51972 4.08063 1.68925 
3.0141 2.28871 0.587551 
1.85943 1.08911 2.79904 
-0.0488359 2.37724 5.84623 
2.66405 0.391676 4.85861 
4.78678 2.49295 2.50064 
2.5517 3.05517 4.86931 
4.16303 6.42532 -0.476357 
5.29502 2.83815 5.80015 
2.57128 1.41497 3.50263 
4.16284 2.02102 1.70611 
0.0356283 4.74555 2.19235 
5.26766 0.431078 6.00672 
2.33768 5.17939 0.737067 
2.58707 4.98354 4.03559 
0.0280111 2.53362 1.34649 
0.621638 6.17359 0.363361 
1.0548 5.24287 0.196419 
6.29988 3.80513 1.65708 
2.52418 0.537603 2.0235 
3.1905 0.536534 5.95934 
0.763657 2.79021 5.2187 
1.51806 4.42142 0.669642 
4.28109 4.59503 6.33477 
4.16183 1.08279 1.12078 
4.78568 5.21454 3.59732 
4.26687 5.01617 0.95209 
2.84513 0.590291 1.00237 
1.22043 3.02796 1.83797 
1.98893 3.06323 3.60316 
0.252247 1.86837 0.530934 
6.02124 6.61031 1.37999 
0.49741 5.21435 4.06498 
4.44731 3.58664 5.91431 
1.84264 3.4026 0.870684 
2.55586 4.27551 2.34473 
5.60904 6.03963 3.15457 
0.899977 0.824462 5.1499 
4.97606 4.58975 5.49088 
5.54577 3.1171 2.07114 
1.56271 4.55375 5.92155 
5.83975 4.8127 1.28526 
3.53695 1.13191 3.24637 
0.28115 1.93232 4.78935 
3.34334 3.723 1.57159 
4.73798 2.96041 0.454494 
3.89529 3.10555 3.24526 
1.26102 0.441913 6.05054 
5.01938 4.16864 0.943955 
4.25966 5.40883 5.48396 
0.481495 1.43268 5.92062 
4.80856 5.88905 0.193046 
5.22014 5.55257 4.53911 
2.34924 5.54909 4.97768 
1.69303 2.01121 3.47171 
5.49883 3.00761 3.15393 
5.2987 4.9299 0.252156 
3.51863 3.32868 5.26317 
4.06655 1.18139 5.37106 
3.21714 4.91614 5.94382 
2.02556 1.48649 1.834 
6.16001 1.04111 5.109 
-0.181889 5.2353 4.8953 
3.58909 0.228834 1.66478 
3.67935 3.99593 2.55857 
2.32618 2.04626 5.16483 
5.89096 6.3217 5.14758 
4.47493 0.855442 4.3283 
1.09875 3.79769 3.47931 
5.74995 3.49506 4.14405 
3.26084 4.79295 1.71846 
3.79456 5.58794 0.151456 
1.35734 5.42379 4.63772 
4.87105 5.94829 2.40684 
5.39415 3.81354 6.31663 
2.46939 4.23714 1.21998 
3.01736 5.83182 3.33237 
2.44277 4.26597 0.126313 
0.576991 6.10908 4.91744 
3.13694 4.19103 3.44202 
3.36649 4.9947 2.76311 
1.67197 0.638159 3.77973 
2.10897 4.14959 3.34812 
0.795597 2.02568 2.10136 
0.227755 1.25897 1.43836 
3.35316 2.26985 4.91031 
1.96995 2.41452 2.43478 
4.70004 3.61601 2.68136 
5.64742 2.36831 0.371305 
4.35891 0.99035 6.38345 
6.1016 2.91045 4.94249 
5.81296 2.0665 2.14722 
1.9742 1.0162 5.47699 
2.7837 2.80079 5.91881 
4.43262 0.482952 2.90367 
5.10126 1.49952 0.600149 
5.29463 4.23909 3.41849 
1.74273 0.64486 1.13614 
4.5015 1.43547 3.42622 
3.74549 2.82946 1.13591 
4.54221 3.69895 4.83156 
2.22113 -0.00672965 5.71703 
1.31614 5.55436 1.19251 
6.3463 5.11582 0.370886 
3.19372 1.5338 1.42571 
2.99044 2.44691 1.96269 
4.75189 3.44429 3.82089 
0.186463 5.67395 5.82262 
1.74046 6.08553 0.363584 
5.06225 2.7693 4.60889 
3.7833 0.229643 3.7816 
4.03304 3.78957 0.705912 
0.790357 -0.856769 2.12692 
0.748381 0.894625 0.519145 
5.85658 5.12629 3.69814 
2.1919 0.0489178 2.92795 
1.30812 5.77274 5.65222 
0.699397 2.36353 3.89035 
4.6811 0.490254 1.82569 
2.24778 5.32653 6.03054 
1.22536 1.62092 1.1369 
4.39146 6.02786 1.19019 
4.64895 3.297 1.52221 
2.37871 3.32403 1.79437 
3.35498 1.2756 0.377007 
0.620901 4.28765 -0.0326319 
3.59882 1.96771 5.92807 
1.75296 3.51583 2.61634 
1.50044 4.62985 2.58646 
1.38286 5.66538 2.98342 
3.72405 0.305422 4.89632 
5.48915 1.20598 1.53932 
5.41933 5.76996 1.09607 
3.60654 2.10321 3.79648 
2.04447 2.43062 1.33504 
0.390265 0.623747 4.26704 
4.7607 1.89085 5.95814 
ITEM: TIMESTEP
734
ITEM: NUMBER OF ATOMS
256
ITEM: BOX BOUNDS
0 6.3386
0 6.3386
0 6.3386
ITEM: ATOMS xu yu zu 
0.619475 4.68216 1.252 
6.02113 0.874007 0.516506 
1.52075 4.93033 3.71387 
3.64737 5.09609 3.80348 
2.84743 3.34982 2.78301 
3.98172 2.93475 4.35412 
4.83665 -0.0284563 3.81416 
0.0484394 0.463556 3.28114 
0.553939 3.35148 4.3468 
3.8567 1.11052 2.20432 
4.15099 2.01597 0.556457 
0.726667 4.88204 5.34675 
0.986364 4.34878 4.41522 
1.90712 4.54925 4.91703 
5.61831 3.25795 0.997667 
4.30399 2.64649 5.3828 
4.41595 4.73492 4.50386 
1.08107 2.75794 2.9481 
3.39583 1.17462 4.3016 
4.81684 0.0698689 5.02371 
5.44962 4.48127 4.47491 
0.294174 5.76738 3.08705 
4.1614 5.77047 4.44875 
1.56229 6.27176 2.05064 
2.89566 3.36615 0.639307 
3.39211 3.88135 6.1719 
2.05166 5.9134 3.91129 
0.195505 5.67523 1.24002 
0.17549 3.0196 0.381461 
5.89281 6.12239 0.241898 
2.1823 1.26822 4.46732 
1.07496 0.966095 2.06086 
2.82022 2.36243 3.09877 
0.0540354 4.13914 4.88784 
5.39338 5.56409 5.6852 
1.26957 1.81421 5.30957 
3.93165 4.35071 5.37492 
6.02787 4.59897 5.8038 
4.42803 4.81035 2.6437 
0.30509 0.156629 2.26377 
3.75451 2.90868 0.0400336 
0.79119 3.65701 0.988586 
3.75761 0.247686 0.541979 
5.94576 2.44807 3.98698 
6.16142 6.06049 4.10382 
2.30777 6.06829 1.30243 
4.92922 5.1276 1.75776 
1.50288 1.49417 0.0337113 
5.05224 0.439959 0.777419 
5.89996 5.74549 2.09189 
4.25298 4.27547 1.71553 
4.33446 1.89941 4.59486 
4.88249 1.40323 2.40206 
3.02532 1.29525 5.26865 
0.994496 3.82528 5.36687 
0.974763 6.14646 3.88749 
2.51285 3.94727 4.28766 
0.939192 2.37848 6.20162 
3.37273 5.05138 4.8404 
6.18111 4.0725 0.616621 
4.67052 2.42889 3.63957 
0.189654 3.1946 3.37289 
0.604443 4.75991 3.09289 
3.82149 2.06367 2.74473 
5.3162 4.16747 1.99661 
5.47094 5.01037 2.70964 
2.87553 1.47736 2.47169 
2.32354 5.15937 2.96141 
5.09015 1.09288 5.1857 
3.1101 5.93181 4.35577 
5.49283 3.71134 5.23904 
3.92988 5.57269 2.02984 
6.27337 1.44307 3.78969 
1.0478 2.62221 0.879032 
1.62689 0.134324 4.77815 
1.96504 2.49732 6.60528 
3.32063 4.63029 0.648264 
5.59771 0.454189 2.36282 
2.57164 2.24334 4.14662 
1.12015 1.44057 4.26801 
5.73794 1.4509 6.03195 
1.57342 2.43719 4.4932 
5.47275 1.89917 3.15411 
3.87065 3.00449 2.19432 
5.27508 1.61482 4.18309 
2.0901 5.11119 1.81841 
0.145784 2.17072 3.00344 
3.04982 3.14834 3.86744 
0.0764794 4.20983 3.79804 
1.60623 3.48794 4.5693 
2.243 0.705001 0.147191 
0.223761 2.96126 2.30534 
6.36091 1.21101 2.50577 
3.31608 5.67323 1.1195 
1.72403 2.74865 5.59155 
0.0452879 3.51229 5.80275 
4.19722 4.24833 3.50224 
1.23165 3.40453 6.33472 
2.7391 0.432414 3.78339 
0.861121 1.36754 3.19169 
0.146192 0.427596 5.93567 
6.03652 3.89192 2.74682 
5.13316 2.32013 1.34311 
2.85824 5.79058 2.19337 
5.57427 2.01145 5.13182 
1.08047 0.33823 2.9503 
3.5947 4.00379 4.39081 
2.88435 4.19976 5.23935 
2.54934 1.70577 -0.206771 
3.34936 0.262925 2.70535 
2.81956 6.07532 0.256788 
5.38057 0.840522 3.32381 
0.795357 0.2125 1.33759 
0.738757 3.88192 2.43389 
5.57685 0.590593 4.32722 
2.08269 3.69283 5.63756 
3.23138 5.90019 5.51966 
4.06035 5.80341 3.08414 
2.28816 1.53173 0.808492 
1.51972 4.08063 1.68925 
3.0141 2.28871 0.587551 
1.85943 1.08911 2.79904 
-0.0488359 2.37724 5.84623 
2.66405 0.391676 4.85861 
4.78678 2.49295 2.50064 
2.5517 3.05517 4.86931 
4.16303 6.42532 -0.476357 
5.29502 2.83815 5.80015 
2.57128 1.41497 3.50263 
4.16284 2.02102 1.70611 
0.0356283 4.74555 2.19235 
5.26766 0.431078 6.00672 
2.33768 5.17939 0.737067 
2.58707 4.98354 4.03559 
0.0280111 2.53362 1.34649 
0.621638 6.17359 0.363361 
1.0548 5.24287 0.196419 
6.29988 3.80513 1.65708 
2.52418 0.537603 2.0235 
3.1905 0.536534 5.95934 
0.763657 2.79021 5.2187 
1.51806 4.42142 0.669642 
4.28109 4.59503 6.33477 
4.16183 1.08279 1.12078 
4.78568 5.21454 3.59732 
4.26687 5.01617 0.95209 
2.84513 0.590291 1.00237 
1.22043 3.02796 1.83797 
1.98893 3.06323 3.60316 
0.252247 1.86837 0.530934 
6.02124 6.61031 1.37999 
0.49741 5.21435 4.06498 
4.44731 3.58664 5.91431 
1.84264 3.4026 0.870684 
2.55586 4.27551 2.34473 
5.60904 6.03963 3.15457 
0.899977 0.824462 5.1499 
4.97606 4.58975 5.49088 
5.54577 3.1171 2.07114 
1.56271 4.55375 5.92155 
5.83975 4.8127 1.28526 
3.53695 1.13191 3.24637 
0.28115 1.93232 4.78935 
3.34334 3.723 1.57159 
4.73798 2.96041 0.454494 
3.89529 3.10555 3.24526 
1.26102 0.441913 6.05054 
5.01938 4.16864 0.943955 
4.25966 5.40883 5.48396 
0.481495 1.43268 5.92062 
4.80856 5.88905 0.193046 
5.22014 5.55257 4.53911 
2.34924 5.54909 4.97768 
1.69303 2.01121 3.47171 
5.49883 3.00761 3.15393 
5.2987 4.9299 0.252156 
3.51863 3.32868 5.26317 
4.06655 1.18139 5.37106 
3.21714 4.91614 5.94382 
2.02556 1.48649 1.834 
6.16001 1.04111 5.109 
-0.181889 5.2353 4.8953 
3.58909 0.228834 1.66478 
3.67935 3.99593 2.55857 
2.32618 2.04626 5.16483 
5.89096 6.3217 5.14758 
4.47493 0.855442 4.3283 
1.09875 3.79769 3.47931 
5.74995 3.49506 4.14405 
3.26084 4.79295 1.71846 
3.79456 5.58794 0.151456 
1.35734 5.42379 4.63772 
4.87105 5.94829 2.40684 
5.39415 3.81354 6.31663 
2.46939 4.23714 1.21998 
3.01736 5.83182 3.33237 
2.44277 4.26597 0.126313 
0.576991 6.10908 4.91744 
3.13694 4.19103 3.44202 
3.36649 4.9947 2.76311 
1.67197 0.638158 3.77973 
2.10897 4.14959 3.34812 
0.795597 2.02568 2.10136 
0.227755 1.25897 1.43836 
3.35316 2.26985 4.91031 
1.96995 2.41452 2.43478 
4.70004 3.61601 2.68136 
5.64742 2.36831 0.371305 
4.35891 0.99035 6.38345 
6.1016 2.91045 4.94249 
5.81296 2.0665 2.14722 
1.9742 1.0162 5.47699 
2.7837 2.80079 5.91881 
4.43262 0.482952 2.90367 
5.10126 1.49952 0.600149 
5.29463 4.23909 3.41849 
1.74273 0.64486 1.13614 
4.5015 1.43547 3.42622 
3.74549 2.82946 1.13591 
4.54221 3.69895 4.83156 
2.22113 -0.00672962 5.71703 
1.31614 5.55436 1.19251 
6.3463 5.11582 0.370886 
3.19372 1.5338 1.42571 
2.99044 2.44691 1.96269 
4.75189 3.44429 3.82089 
0.186463 5.67395 5.82262 
1.74046 6.08553 0.363584 
5.06225 2.7693 4.60889 
3.7833 0.229643 3.7816 
4.03304 3.78957 0.705912 
0.790357 -0.856769 2.12692 
0.748381 0.894625 0.519145 
5.85658 5.12629 3.69814 
2.1919 0.0489178 2.92795 
1.30812 5.77274 5.65222 
0.699397 2.36353 3.89035 
4.6811 0.490254 1.82569 
2.24778 5.32653 6.03054 
1.22536 1.62092 1.1369 
4.39146 6.02786 1.19019 
4.64895 3.297 1.52221 
2.37871 3.32403 1.79437 
3.35498 1.2756 0.377007 
0.620901 4.28765 -0.0326319 
3.59882 1.96771 5.92807 
1.75296 3.51583 2.61634 
1.50044 4.62985 2.58646 
1.38286 5.66538 2.98342 
3.72405 0.305422 4.89632 
5.48915 1.20598 1.53932 
5.41933 5.76996 1.09607 
3.60654 2.10321 3.79648 
2.04447 2.43062 1.33504 
0.390265 0.623747 4.26704 
4.7607 1.89085 5.95814 
