
#------------ NVE rescale -----------------------------------------
	velocity 	all create ${T_run} ${seed} rot yes dist gaussian
	velocity 	all create 0.04133683832 ${seed} rot yes dist gaussian
	velocity 	all create 0.04133683832 1111 rot yes dist gaussian
	fix 		1 all nve
	fix 		2 all temp/rescale 1 ${T_run} ${T_run} 0.01 1.0
	fix 		2 all temp/rescale 1 0.04133683832 ${T_run} 0.01 1.0
	fix 		2 all temp/rescale 1 0.04133683832 0.04133683832 0.01 1.0
	timestep	${dt}
	timestep	0.002
	thermo_style  	custom step temp press etotal vol
	thermo		1000
	run             100000	
Memory usage per processor = 1.37442 Mbytes
Step Temp Press TotEng Volume 
       0  0.041336838  -0.31885509   -6.7748802    254.67132 
    1000  0.041368695  0.030150929   -6.7123905    254.67132 
    2000  0.044791715  0.019289046   -6.7123884    254.67132 
    3000  0.042653884  0.028635773   -6.7123869    254.67132 
    4000   0.04141242  0.034591427   -6.7123868    254.67132 
    5000   0.04397697 -0.0018885076   -6.7123862    254.67132 
    6000  0.042696836 -0.0058639639   -6.7123841    254.67132 
    7000  0.043885136 -0.0018155967   -6.7123835    254.67132 
    8000  0.043051153  0.012511997   -6.7123819    254.67132 
    9000  0.042928458 0.0073445409   -6.7123815    254.67132 
   10000  0.041129519  0.048418952   -6.7123802    254.67132 
   11000  0.040791058   0.03803056   -6.7123774    254.67132 
   12000  0.046309448  0.011765582   -6.7123803    254.67132 
   13000  0.041403255  0.036102309   -6.7123808    254.67132 
   14000  0.043242911  0.014966588   -6.7123808    254.67132 
   15000  0.040655399  0.035752922   -6.7123796    254.67132 
   16000  0.043620542 0.0062900968   -6.7123827    254.67132 
   17000  0.041968334  0.012563053   -6.7123804    254.67132 
   18000  0.043785173 0.0086012674   -6.7123781    254.67132 
   19000  0.045725173 -0.024739159   -6.7123792    254.67132 
   20000  0.045709621 -0.0014607828   -6.7123817    254.67132 
   21000  0.044562904 -0.002988857   -6.7123827    254.67132 
   22000  0.045535276 0.00051753189   -6.7123854    254.67132 
   23000  0.040608731  0.010037324   -6.7123825    254.67132 
   24000  0.043957796 0.0075346315   -6.7123857    254.67132 
   25000  0.045703741 0.0040702743   -6.7123864    254.67132 
   26000  0.042265045  0.019365058    -6.712385    254.67132 
   27000  0.043464615 0.0065319977    -6.712383    254.67132 
   28000  0.044143065  0.014678422   -6.7123844    254.67132 
   29000  0.040656449   0.02123794    -6.712382    254.67132 
   30000  0.044059375 -0.002396114   -6.7123818    254.67132 
   31000   0.04269176  0.024230197   -6.7123787    254.67132 
   32000  0.043670055 0.0064235361   -6.7123772    254.67132 
   33000  0.044077787 0.0060486742   -6.7123797    254.67132 
   34000  0.045783518 -0.016107882   -6.7123823    254.67132 
   35000  0.046849203 -0.023782937   -6.7123815    254.67132 
   36000  0.039539796  0.035428484   -6.7123795    254.67132 
   37000  0.045151088 -0.023257385   -6.7123814    254.67132 
   38000  0.045160305 -0.0087165072   -6.7123832    254.67132 
   39000   0.04171263 0.0090394927   -6.7123827    254.67132 
   40000  0.043918978 -0.0041445651   -6.7123817    254.67132 
   41000  0.044520072 -0.00011388874   -6.7123809    254.67132 
   42000  0.042306147  0.022641734   -6.7123846    254.67132 
   43000  0.047379228 -0.032896716   -6.7123878    254.67132 
   44000  0.044201574 0.0068801691   -6.7123849    254.67132 
   45000  0.044182243 0.0080087282   -6.7123844    254.67132 
   46000  0.044734768 -2.5231305e-05   -6.7123851    254.67132 
   47000  0.041192863  0.027868538   -6.7123789    254.67132 
   48000  0.044092094 0.0050608266   -6.7123818    254.67132 
   49000  0.043876807 0.0035658485   -6.7123847    254.67132 
   50000  0.047444356 -0.0083874835    -6.712384    254.67132 
   51000  0.044138722 -0.0028145608   -6.7123791    254.67132 
   52000  0.042485213   0.01195429   -6.7123789    254.67132 
   53000  0.043887148 -0.014264001   -6.7123828    254.67132 
   54000  0.043878447 -0.00042007002    -6.712386    254.67132 
   55000  0.041325875  0.019127856   -6.7123798    254.67132 
   56000  0.041578638 0.00068600003   -6.7123774    254.67132 
   57000  0.043901789  0.028529134   -6.7123778    254.67132 
   58000   0.04491671 0.0061663831   -6.7123795    254.67132 
   59000  0.043864733 0.0086010699   -6.7123775    254.67132 
   60000  0.042069036 0.0063536301   -6.7123735    254.67132 
   61000  0.041538742  0.013559752   -6.7123706    254.67132 
   62000  0.042116571   0.02078851   -6.7123724    254.67132 
   63000  0.044651425 -0.0037982309   -6.7123745    254.67132 
   64000  0.043234835 0.0010179508   -6.7123758    254.67132 
   65000  0.043130389 0.0082941831   -6.7123753    254.67132 
   66000  0.039065499  0.031314823   -6.7123742    254.67132 
   67000  0.044568362 -0.014569438   -6.7123736    254.67132 
   68000  0.045021272 0.0060480754   -6.7123729    254.67132 
   69000  0.040847147  0.021658844   -6.7123725    254.67132 
   70000  0.044092213 -0.012250141   -6.7123723    254.67132 
   71000  0.044239106 0.0070038663    -6.712375    254.67132 
   72000  0.045832282 -0.013668994   -6.7123708    254.67132 
   73000  0.041706834  0.019764186    -6.712367    254.67132 
   74000  0.042733866  0.012787196   -6.7123719    254.67132 
   75000  0.044972342 -0.017316585   -6.7123757    254.67132 
   76000  0.044012782  0.014622861   -6.7123758    254.67132 
   77000  0.042894557  0.025495133   -6.7123737    254.67132 
   78000  0.043281675  0.014828089   -6.7123751    254.67132 
   79000  0.043923719 -0.008289259   -6.7123759    254.67132 
   80000  0.045021127 -0.013172967   -6.7123737    254.67132 
   81000  0.040814782  0.018328192   -6.7123725    254.67132 
   82000  0.041353651  0.032841287   -6.7123686    254.67132 
   83000  0.045625761 -0.0035176976   -6.7123728    254.67132 
   84000  0.044386941  0.010764208   -6.7123743    254.67132 
   85000  0.042108437  0.020240943   -6.7123712    254.67132 
   86000  0.045889536 -0.023169796   -6.7123717    254.67132 
   87000   0.04145673  0.033689687    -6.712368    254.67132 
   88000   0.04092043  0.023352705    -6.712369    254.67132 
   89000  0.044410757 0.0086061235   -6.7123708    254.67132 
   90000  0.046009283 -0.0014779693   -6.7123675    254.67132 
   91000  0.043733104  0.021449424   -6.7123666    254.67132 
   92000   0.04341582  0.012089794   -6.7123707    254.67132 
   93000  0.046401961 -0.011246207   -6.7123727    254.67132 
   94000  0.044091256 -0.0096362035   -6.7123712    254.67132 
   95000  0.043228851 0.0046956416    -6.712373    254.67132 
   96000    0.0449084  0.012095527   -6.7123728    254.67132 
   97000  0.041310047   0.02722001   -6.7123706    254.67132 
   98000  0.042020961  0.015660359   -6.7123755    254.67132 
   99000  0.043608801  0.021152686   -6.7123736    254.67132 
  100000  0.045233342 -0.021194469   -6.7123731    254.67132 
Loop time of 27.5931 on 1 procs for 100000 steps with 256 atoms

Pair  time (%) = 25.1299 (91.0731)
Neigh time (%) = 0.203754 (0.738425)
Comm  time (%) = 1.23175 (4.46399)
Outpt time (%) = 0.00389147 (0.014103)
Other time (%) = 1.02382 (3.71042)

Nlocal:    256 ave 256 max 256 min
Histogram: 1 0 0 0 0 0 0 0 0 0
Nghost:    1448 ave 1448 max 1448 min
Histogram: 1 0 0 0 0 0 0 0 0 0
Neighs:    11545 ave 11545 max 11545 min
Histogram: 1 0 0 0 0 0 0 0 0 0

Total # of neighbors = 11545
Ave neighs/atom = 45.0977
Neighbor list builds = 330
Dangerous builds = 0
#	run             1000
	unfix 		1
	unfix 		2
#------------ NVE -----------------------------------------------------------------------------	
	fix 		1 all nve
	timestep	${dt}
	timestep	0.002
	fix		myave all ave/atom 1 10000 100000 x y z
	dump		1 all custom 500000 x.dump f_myave[1] f_myave[2] f_myave[3]
	dump_modify 	1 sort id
	thermo_style  	custom step temp press etotal vol
	thermo		1000
	run             500000	
Memory usage per processor = 1.60917 Mbytes
Step Temp Press TotEng Volume 
  100000  0.045233342 -0.021194469   -6.7123731    254.67132 
  101000  0.041065406  0.021606478   -6.7123704    254.67132 
  102000  0.041143485  0.033449852   -6.7123708    254.67132 
  103000  0.043202022  0.011326849   -6.7123724    254.67132 
  104000  0.043394991  0.016567106   -6.7123701    254.67132 
  105000  0.044431871 -0.0066931403   -6.7123674    254.67132 
  106000  0.043876865 -0.0077161177   -6.7123681    254.67132 
  107000  0.045110793 -0.015295854   -6.7123688    254.67132 
  108000  0.042228253  0.031024213   -6.7123657    254.67132 
  109000  0.044801401  0.017532187   -6.7123696    254.67132 
  110000  0.045814392 -0.0079381984   -6.7123704    254.67132 
  111000  0.043698138 -0.0079580798   -6.7123708    254.67132 
  112000  0.045140464 -0.0060209399   -6.7123687    254.67132 
  113000  0.042874656  0.012265563   -6.7123703    254.67132 
  114000   0.04294716  0.016156302   -6.7123688    254.67132 
  115000   0.04434016 -0.0045837904   -6.7123672    254.67132 
  116000  0.044430188 0.0025701366   -6.7123687    254.67132 
  117000  0.045599888  0.011651046   -6.7123712    254.67132 
  118000  0.040743044  0.021875715   -6.7123669    254.67132 
  119000  0.044056688  0.015597226   -6.7123693    254.67132 
  120000  0.043886784 -0.0053309056   -6.7123685    254.67132 
  121000  0.044575583  0.014413616   -6.7123687    254.67132 
  122000   0.04537651 -0.0059519451   -6.7123665    254.67132 
  123000  0.043921367 -0.0022892409   -6.7123657    254.67132 
  124000  0.043808328 -0.007473639   -6.7123653    254.67132 
  125000  0.044710179 -0.010481015   -6.7123679    254.67132 
  126000  0.041867545   0.02803985   -6.7123709    254.67132 
  127000  0.042909519 -0.0067288841   -6.7123733    254.67132 
  128000  0.041923401  0.011505185   -6.7123733    254.67132 
  129000  0.041175542  0.022319663   -6.7123736    254.67132 
  130000  0.045004525 -0.00069582262   -6.7123751    254.67132 
  131000  0.042442127  0.011839343   -6.7123704    254.67132 
  132000  0.040588652  0.032906324   -6.7123727    254.67132 
  133000  0.042180851  0.025821163   -6.7123701    254.67132 
  134000  0.043595252 -0.0016705314   -6.7123698    254.67132 
  135000  0.041905695  0.023995157   -6.7123696    254.67132 
  136000  0.044274158  0.011844498   -6.7123733    254.67132 
  137000  0.044701743 -0.018652088   -6.7123761    254.67132 
  138000  0.044841388 0.00028565001   -6.7123749    254.67132 
  139000  0.042241134 0.00033977032   -6.7123719    254.67132 
  140000  0.045961245  0.012224733   -6.7123761    254.67132 
  141000  0.043852348 -0.017137751   -6.7123717    254.67132 
  142000  0.044013803 0.0064733069   -6.7123725    254.67132 
  143000  0.045103799 -0.00096355869   -6.7123742    254.67132 
  144000  0.043931585 -0.022291287   -6.7123752    254.67132 
  145000  0.045020629 -0.016410265   -6.7123711    254.67132 
  146000  0.046344368 0.00058318157   -6.7123726    254.67132 
  147000  0.043400609 -0.0049109271   -6.7123763    254.67132 
  148000  0.042711571  0.025194852   -6.7123726    254.67132 
  149000  0.043924186 0.0021280413   -6.7123759    254.67132 
  150000  0.043906309 0.0015796987   -6.7123733    254.67132 
  151000  0.043280438  0.020483863   -6.7123737    254.67132 
  152000   0.04368007 0.0088604304   -6.7123739    254.67132 
  153000  0.043400956  0.012233957   -6.7123744    254.67132 
  154000  0.043660141  0.010645072   -6.7123769    254.67132 
  155000  0.045041101 0.00037718762   -6.7123764    254.67132 
  156000  0.044570941  0.015989544   -6.7123756    254.67132 
  157000  0.042342378  0.037430677   -6.7123765    254.67132 
  158000  0.044925473 -9.6363466e-05   -6.7123764    254.67132 
  159000  0.044213926 -0.0042003943   -6.7123713    254.67132 
  160000  0.043998995 -0.015709903   -6.7123722    254.67132 
  161000   0.04167339  0.031473381   -6.7123738    254.67132 
  162000  0.040954479  0.031862334   -6.7123764    254.67132 
  163000  0.042631337  0.027558664   -6.7123759    254.67132 
  164000  0.044464509  0.014604522    -6.712374    254.67132 
  165000  0.043732058 0.00028359287   -6.7123714    254.67132 
  166000  0.044881804 -0.010124001   -6.7123699    254.67132 
  167000  0.045905022 -0.0043690936   -6.7123704    254.67132 
  168000  0.042797353 0.0084438704   -6.7123661    254.67132 
  169000  0.046216241 -0.022779778   -6.7123696    254.67132 
  170000  0.044381448  0.013248841   -6.7123693    254.67132 
  171000  0.043033811  0.011457411   -6.7123704    254.67132 
  172000   0.04288823  0.013040517   -6.7123701    254.67132 
  173000  0.045912311 -0.013001734    -6.712373    254.67132 
  174000  0.045498673 -0.014056716   -6.7123696    254.67132 
  175000  0.042918265 -0.0047428225   -6.7123715    254.67132 
  176000  0.043468415 0.0099564476   -6.7123749    254.67132 
  177000   0.04520598 0.0090120251   -6.7123717    254.67132 
  178000  0.043171998 0.0037323327   -6.7123691    254.67132 
  179000  0.041003716  0.026327011   -6.7123679    254.67132 
  180000  0.041332593  0.010604378   -6.7123666    254.67132 
  181000  0.043828276  0.012465258   -6.7123697    254.67132 
  182000  0.042360505  0.017279059   -6.7123673    254.67132 
  183000  0.047253111 -0.015168491   -6.7123677    254.67132 
  184000  0.043146421  0.015325264   -6.7123657    254.67132 
  185000  0.042651446  0.016772801   -6.7123683    254.67132 
  186000   0.04203938  0.016482219   -6.7123674    254.67132 
  187000  0.041072342  0.033316429   -6.7123652    254.67132 
  188000  0.043484151  0.013117598   -6.7123667    254.67132 
  189000  0.040798135  0.042431482   -6.7123665    254.67132 
  190000  0.041818983  0.029515576   -6.7123631    254.67132 
  191000   0.04362492 0.0026913974   -6.7123668    254.67132 
  192000  0.042098548  0.022863438   -6.7123644    254.67132 
  193000   0.04215173  0.007941602   -6.7123652    254.67132 
  194000  0.045696299 -0.019320855   -6.7123689    254.67132 
  195000  0.043701692  0.024380735   -6.7123697    254.67132 
  196000  0.044914154  0.022405434   -6.7123692    254.67132 
  197000   0.04240637  0.011123829   -6.7123709    254.67132 
  198000   0.04396194 0.0027465835   -6.7123728    254.67132 
  199000  0.043085514 0.0036333801   -6.7123736    254.67132 
  200000  0.044442857 -0.0036383335   -6.7123732    254.67132 
  201000  0.042332053   0.02076339   -6.7123713    254.67132 
  202000  0.044385241 -0.007246482   -6.7123728    254.67132 
  203000  0.046116606 -0.017239001   -6.7123734    254.67132 
  204000  0.045536439 0.0064168744   -6.7123746    254.67132 
  205000  0.042222991   0.01293132   -6.7123723    254.67132 
  206000  0.043904478 0.0068042183   -6.7123739    254.67132 
  207000  0.045425891 -0.0047084698   -6.7123776    254.67132 
  208000  0.043614039 0.0094862282   -6.7123803    254.67132 
  209000  0.045835512 -0.018698662   -6.7123819    254.67132 
  210000  0.044654665 0.0039770432    -6.712383    254.67132 
  211000  0.040741935  0.022067147   -6.7123763    254.67132 
  212000  0.041916289 0.0096119376   -6.7123741    254.67132 
  213000  0.040514549  0.037354197   -6.7123781    254.67132 
  214000  0.042371336  0.017144149   -6.7123801    254.67132 
  215000  0.043557038  0.007762437   -6.7123814    254.67132 
  216000  0.046540697 -0.025871983   -6.7123809    254.67132 
  217000  0.044138485 -0.003770496   -6.7123803    254.67132 
  218000  0.045176435 -0.0045586659   -6.7123787    254.67132 
  219000  0.043599792 0.0085782573    -6.712381    254.67132 
  220000  0.041761013  0.013639146   -6.7123791    254.67132 
  221000  0.047270003 -0.021314981   -6.7123827    254.67132 
  222000  0.042521956  0.016070348   -6.7123796    254.67132 
  223000  0.042292644  0.020246653   -6.7123809    254.67132 
  224000  0.043025439  0.027564033   -6.7123849    254.67132 
  225000  0.046407148 -0.017855177   -6.7123847    254.67132 
  226000  0.041980961 0.00044302372   -6.7123805    254.67132 
  227000  0.044433989 -0.017483472    -6.712384    254.67132 
  228000  0.043445384 -0.0035083467   -6.7123868    254.67132 
  229000  0.044892692  0.010908223   -6.7123884    254.67132 
  230000  0.040194316   0.03006171   -6.7123851    254.67132 
  231000  0.042722346  0.024886031   -6.7123863    254.67132 
  232000  0.043744249  0.010208488   -6.7123869    254.67132 
  233000   0.04453908 0.0040447994   -6.7123904    254.67132 
  234000  0.045599528 -0.0064329054    -6.712385    254.67132 
  235000  0.043109817  0.030339067   -6.7123843    254.67132 
  236000   0.04301944 -0.0086407713   -6.7123849    254.67132 
  237000  0.044431133 0.0068388503   -6.7123821    254.67132 
  238000  0.043866622 0.0059862831   -6.7123811    254.67132 
  239000  0.044306519 -0.010326401   -6.7123819    254.67132 
  240000   0.04271251  0.012717862   -6.7123838    254.67132 
  241000  0.046101874 -0.012357565   -6.7123862    254.67132 
  242000  0.043838615 0.0041274112   -6.7123805    254.67132 
  243000  0.045092178 0.0026859343   -6.7123774    254.67132 
  244000  0.042260246  0.010533534   -6.7123759    254.67132 
  245000  0.043686483  0.030651807   -6.7123799    254.67132 
  246000  0.042667875  0.019744243   -6.7123792    254.67132 
  247000  0.045351348 -0.0092110039   -6.7123802    254.67132 
  248000  0.044975268  0.012585093   -6.7123756    254.67132 
  249000  0.045797627  -0.01013295   -6.7123774    254.67132 
  250000  0.045010417 -0.014333231   -6.7123774    254.67132 
  251000  0.044376828  0.018380889   -6.7123792    254.67132 
  252000  0.042210007  0.015581737   -6.7123832    254.67132 
  253000  0.041871444  0.037005048   -6.7123824    254.67132 
  254000  0.043525824 0.0016880161   -6.7123815    254.67132 
  255000  0.042790424  0.014177992   -6.7123812    254.67132 
  256000  0.043444614  0.012125236   -6.7123801    254.67132 
  257000  0.042471756 0.0062892182   -6.7123841    254.67132 
  258000  0.043572873 0.0030878443   -6.7123848    254.67132 
  259000  0.041887822  0.024489665   -6.7123852    254.67132 
  260000  0.045319118 -0.0063614941   -6.7123857    254.67132 
  261000  0.040409409  0.036597039   -6.7123865    254.67132 
  262000    0.0413625  0.026480946   -6.7123849    254.67132 
  263000  0.044220043 0.0095452053   -6.7123836    254.67132 
  264000   0.04229507 0.0061564585   -6.7123802    254.67132 
  265000  0.040932653  0.024505911   -6.7123746    254.67132 
  266000  0.045391805 -0.011792573   -6.7123783    254.67132 
  267000  0.042838132 0.0058575014   -6.7123778    254.67132 
  268000  0.038998251  0.056327749   -6.7123774    254.67132 
  269000  0.043424925  0.016556123   -6.7123804    254.67132 
  270000  0.041314416  0.033388957   -6.7123821    254.67132 
  271000  0.043228086 -0.0026476139   -6.7123826    254.67132 
  272000  0.043614629 0.0033648181   -6.7123858    254.67132 
  273000  0.041808055  0.026047963    -6.712386    254.67132 
  274000  0.043630557  0.015274489    -6.712385    254.67132 
  275000  0.044766811 -0.014957822   -6.7123845    254.67132 
  276000  0.043635628 0.00041821253   -6.7123861    254.67132 
  277000  0.046063699 -0.016218059   -6.7123857    254.67132 
  278000  0.042156122 0.0097387994   -6.7123838    254.67132 
  279000  0.043680223  0.024701798   -6.7123878    254.67132 
  280000  0.044259602 -0.0035080443   -6.7123873    254.67132 
  281000   0.04391838 -0.016608861   -6.7123885    254.67132 
  282000  0.044245284 -0.0074117004   -6.7123915    254.67132 
  283000  0.041224134  0.010153941   -6.7123903    254.67132 
  284000  0.043246679 -0.0026411952   -6.7123904    254.67132 
  285000  0.043474708  0.020229584   -6.7123874    254.67132 
  286000  0.043682812 0.0070478211   -6.7123852    254.67132 
  287000  0.044414998  0.024335611   -6.7123816    254.67132 
  288000  0.040435313  0.028216416   -6.7123817    254.67132 
  289000  0.044172527  0.016801131    -6.712383    254.67132 
  290000  0.042991707  0.013672108   -6.7123844    254.67132 
  291000  0.043044685 0.0070547298   -6.7123841    254.67132 
  292000  0.041722375  0.014884767   -6.7123856    254.67132 
  293000  0.044543342  0.012237503     -6.71239    254.67132 
  294000  0.042965725 0.0015705184   -6.7123879    254.67132 
  295000  0.042656216  0.015215167   -6.7123882    254.67132 
  296000  0.048609298 -0.045624848   -6.7123887    254.67132 
  297000  0.043772968  0.012276181   -6.7123854    254.67132 
  298000  0.040156878  0.027586787   -6.7123807    254.67132 
  299000  0.044618135 -0.011227484   -6.7123823    254.67132 
  300000  0.043825547 0.0024789403   -6.7123825    254.67132 
  301000  0.044763536 -0.016302032   -6.7123838    254.67132 
  302000  0.046959162 -0.011048504   -6.7123863    254.67132 
  303000  0.043121171  0.015052016   -6.7123874    254.67132 
  304000  0.044281204  0.017070835   -6.7123865    254.67132 
  305000  0.043461576  0.012799537   -6.7123832    254.67132 
  306000  0.040964899  0.018916943   -6.7123806    254.67132 
  307000  0.044258452 -0.014555669   -6.7123786    254.67132 
  308000  0.044554966  0.001721111     -6.71238    254.67132 
  309000  0.043658769  0.013369329   -6.7123786    254.67132 
  310000  0.043106753  0.017642084   -6.7123791    254.67132 
  311000  0.042636491 0.00093724311    -6.712382    254.67132 
  312000  0.043627665 -0.00065875446   -6.7123818    254.67132 
  313000  0.043378004 -0.00078270609   -6.7123837    254.67132 
  314000  0.043713613  -0.01386798   -6.7123809    254.67132 
  315000  0.043447875 0.0096189537    -6.712384    254.67132 
  316000  0.043520448 -0.0005073631   -6.7123816    254.67132 
  317000  0.044251438 0.0078744238   -6.7123805    254.67132 
  318000  0.044821775 -0.0073680391   -6.7123832    254.67132 
  319000  0.043025257 0.0081346055   -6.7123792    254.67132 
  320000  0.044888608  0.003300937   -6.7123777    254.67132 
  321000  0.043861319  0.011714632   -6.7123744    254.67132 
  322000  0.042875555  0.013671026   -6.7123735    254.67132 
  323000  0.047107654  -0.02349025   -6.7123775    254.67132 
  324000  0.041506579 0.0033672855   -6.7123803    254.67132 
  325000  0.045075159 -0.010608417   -6.7123825    254.67132 
  326000  0.046344758 0.0036371606   -6.7123839    254.67132 
  327000  0.042537646  0.015693496   -6.7123821    254.67132 
  328000  0.045028025 -0.0085912252   -6.7123827    254.67132 
  329000  0.042754417  0.016340211   -6.7123805    254.67132 
  330000  0.044747431 0.0029809573   -6.7123805    254.67132 
  331000  0.042217936  0.018497161   -6.7123801    254.67132 
  332000  0.044210795 0.00053171358   -6.7123787    254.67132 
  333000  0.044208831 -0.0079150032   -6.7123757    254.67132 
  334000  0.043332273    0.0045276   -6.7123787    254.67132 
  335000  0.043227028 0.0051470227   -6.7123752    254.67132 
  336000  0.041860983   0.02486955   -6.7123712    254.67132 
  337000  0.041800931 0.0090136413   -6.7123755    254.67132 
  338000  0.043146957  0.011496978   -6.7123779    254.67132 
  339000  0.043036152 0.0046686875   -6.7123773    254.67132 
  340000  0.045286412 -0.0017455633   -6.7123807    254.67132 
  341000  0.044171988 0.0092890713   -6.7123772    254.67132 
  342000  0.043389156 0.0053200792   -6.7123767    254.67132 
  343000  0.045315174 0.0010420724   -6.7123743    254.67132 
  344000  0.045508905 0.0021718971   -6.7123717    254.67132 
  345000  0.042504386 0.0033262923   -6.7123686    254.67132 
  346000  0.043589477  0.018538358    -6.712367    254.67132 
  347000    0.0429421  0.019462307   -6.7123689    254.67132 
  348000  0.045757153 -0.0064442005   -6.7123706    254.67132 
  349000  0.042298679  0.042703768    -6.712368    254.67132 
  350000  0.043561282  0.018140745   -6.7123678    254.67132 
  351000  0.043868065  0.012196635   -6.7123679    254.67132 
  352000  0.041858095  0.008692327   -6.7123681    254.67132 
  353000  0.045234629 -0.005756052   -6.7123721    254.67132 
  354000  0.045606765 -0.0016458328   -6.7123737    254.67132 
  355000  0.045047751 0.0076371506   -6.7123732    254.67132 
  356000  0.043744802 0.0097763141   -6.7123758    254.67132 
  357000  0.044321634 -0.0050335952   -6.7123764    254.67132 
  358000  0.041772758  0.027159084   -6.7123777    254.67132 
  359000  0.047390132 -0.017092796    -6.712378    254.67132 
  360000  0.043446926  0.016261642   -6.7123757    254.67132 
  361000  0.042209133  0.033204838    -6.712376    254.67132 
  362000  0.042191111  0.011457839   -6.7123773    254.67132 
  363000  0.043586807  0.026263915   -6.7123788    254.67132 
  364000  0.044257189 -0.0014526798   -6.7123752    254.67132 
  365000  0.043951712 -0.019109394   -6.7123814    254.67132 
  366000  0.045651417 -0.024948644   -6.7123822    254.67132 
  367000  0.041412051  0.043546749   -6.7123815    254.67132 
  368000   0.04486348  0.020566453   -6.7123826    254.67132 
  369000  0.046014902 0.0022227505   -6.7123816    254.67132 
  370000  0.043923043 -0.0011128497   -6.7123857    254.67132 
  371000  0.041317911  0.030066469   -6.7123848    254.67132 
  372000  0.043321662  0.020913626    -6.712384    254.67132 
  373000  0.045516455 -0.0082258319   -6.7123888    254.67132 
  374000  0.043674518 -0.0079113373   -6.7123887    254.67132 
  375000  0.042410522  0.021391991   -6.7123874    254.67132 
  376000  0.042910172 0.0040238065   -6.7123859    254.67132 
  377000  0.043335351 0.0095542025   -6.7123825    254.67132 
  378000  0.043894239 0.0035680759   -6.7123816    254.67132 
  379000  0.041012652  0.020036104   -6.7123817    254.67132 
  380000  0.044659633 -0.002920104   -6.7123835    254.67132 
  381000  0.045080347 -0.00020650567   -6.7123829    254.67132 
  382000  0.041800924  0.011715267   -6.7123864    254.67132 
  383000  0.043441472 -0.0016448221   -6.7123872    254.67132 
  384000  0.041475992  0.031661501   -6.7123848    254.67132 
  385000  0.044462887 -0.0096799104   -6.7123858    254.67132 
  386000  0.044091413 0.0059396351   -6.7123875    254.67132 
  387000  0.047096059 -0.020950696   -6.7123906    254.67132 
  388000  0.040843722  0.033082508   -6.7123847    254.67132 
  389000  0.042669199 0.0095454816    -6.712383    254.67132 
  390000  0.044056014 0.0026077509   -6.7123797    254.67132 
  391000  0.044283673 -0.0037282523    -6.712378    254.67132 
  392000  0.043030041  0.016585367    -6.712374    254.67132 
  393000   0.04211101  0.014975034   -6.7123786    254.67132 
  394000   0.04300307  0.011931448   -6.7123799    254.67132 
  395000  0.042122621  0.034449819   -6.7123803    254.67132 
  396000  0.044217311 -0.0087391516   -6.7123812    254.67132 
  397000  0.044897464 -0.0065813081   -6.7123805    254.67132 
  398000  0.047046192 -0.00058332994    -6.712382    254.67132 
  399000  0.041585875  0.024025242   -6.7123811    254.67132 
  400000  0.040965453 0.0099801026   -6.7123771    254.67132 
  401000  0.043039732  0.006226035    -6.712379    254.67132 
  402000  0.043755672 -0.0084954576   -6.7123787    254.67132 
  403000  0.043058645  0.023806784   -6.7123808    254.67132 
  404000  0.044435116 -0.021279562   -6.7123861    254.67132 
  405000  0.040879251  0.022959634   -6.7123804    254.67132 
  406000   0.04496099 0.0033290706   -6.7123824    254.67132 
  407000  0.041567833  0.012803535   -6.7123763    254.67132 
  408000  0.040944481   0.03262758   -6.7123761    254.67132 
  409000  0.043660882  0.022843169   -6.7123766    254.67132 
  410000  0.044012406 -0.0037048109   -6.7123788    254.67132 
  411000  0.043088517  0.010423634   -6.7123786    254.67132 
  412000  0.045061709 -0.0070622204   -6.7123786    254.67132 
  413000  0.043625675 0.0079190418   -6.7123784    254.67132 
  414000   0.04470529 -0.0074303854   -6.7123806    254.67132 
  415000  0.044138831 -0.001152699   -6.7123788    254.67132 
  416000   0.04301421  0.025376264   -6.7123773    254.67132 
  417000  0.043688415 0.0032439835   -6.7123748    254.67132 
  418000  0.042146132  0.008289142   -6.7123747    254.67132 
  419000  0.045254697 -0.016383158   -6.7123745    254.67132 
  420000   0.04307454   0.02902709   -6.7123767    254.67132 
  421000  0.041325765  0.033945466   -6.7123759    254.67132 
  422000   0.04687897 -0.010433581   -6.7123784    254.67132 
  423000  0.041711212  0.020942275   -6.7123776    254.67132 
  424000  0.044752694 0.0062306003   -6.7123769    254.67132 
  425000  0.044537531 -0.010403634   -6.7123735    254.67132 
  426000  0.043242387  0.025773835    -6.712372    254.67132 
  427000  0.041315868  0.018347827   -6.7123731    254.67132 
  428000  0.042711992  0.014576409   -6.7123773    254.67132 
  429000  0.042027192  0.012449114   -6.7123796    254.67132 
  430000    0.0452322 -0.0046237741   -6.7123788    254.67132 
  431000  0.045695676 -0.009373184   -6.7123833    254.67132 
  432000  0.041919723  0.013317941   -6.7123817    254.67132 
  433000   0.04518827 -0.0076950584   -6.7123827    254.67132 
  434000  0.045134273   0.01637974   -6.7123861    254.67132 
  435000  0.043903409  0.001309789   -6.7123849    254.67132 
  436000  0.042616072  0.019007873   -6.7123825    254.67132 
  437000  0.042786427  0.034607571   -6.7123863    254.67132 
  438000   0.04392113  0.012095542   -6.7123876    254.67132 
  439000  0.043611852 0.0059516394   -6.7123859    254.67132 
  440000  0.043068299 0.0095418355   -6.7123889    254.67132 
  441000  0.045521375 -0.0019738198    -6.712388    254.67132 
  442000  0.044347647 -0.0031596204    -6.712386    254.67132 
  443000  0.043332075 -0.001468351   -6.7123866    254.67132 
  444000   0.04229188  0.015101767   -6.7123828    254.67132 
  445000  0.043950378 -0.008774606   -6.7123825    254.67132 
  446000  0.043545239 0.00070206518   -6.7123831    254.67132 
  447000  0.043535241 0.0013678138   -6.7123915    254.67132 
  448000  0.042233851  0.014576042   -6.7123893    254.67132 
  449000  0.044931409 -0.0093434529   -6.7123904    254.67132 
  450000   0.04278378  0.011458328   -6.7123911    254.67132 
  451000  0.043780713 -0.0056858978   -6.7123913    254.67132 
  452000  0.044914509 -0.022055584   -6.7123952    254.67132 
  453000   0.04429304 0.0076257627   -6.7123977    254.67132 
  454000  0.043872977  0.014098119   -6.7123965    254.67132 
  455000  0.044991504 -0.00095490372   -6.7123993    254.67132 
  456000  0.044343309 0.0072445526   -6.7123984    254.67132 
  457000  0.045406966 -0.010062609   -6.7124005    254.67132 
  458000  0.042891352  0.029193248   -6.7123991    254.67132 
  459000  0.044268614 -0.0037296261   -6.7124008    254.67132 
  460000  0.042546473  0.011438425   -6.7124003    254.67132 
  461000  0.041875535  0.013708046    -6.712401    254.67132 
  462000  0.044003673 0.0038181218   -6.7124054    254.67132 
  463000  0.041839209  0.017808491   -6.7124076    254.67132 
  464000  0.044077732   0.01832027   -6.7124135    254.67132 
  465000  0.041528968   0.03516898    -6.712413    254.67132 
  466000  0.041990387  0.018693247   -6.7124139    254.67132 
  467000  0.043714895 0.0086273888   -6.7124153    254.67132 
  468000  0.041128775   0.03563001   -6.7124158    254.67132 
  469000  0.043036286  0.024051089   -6.7124165    254.67132 
  470000  0.041532786  0.051817409   -6.7124146    254.67132 
  471000  0.044752045  0.001339673   -6.7124136    254.67132 
  472000  0.043291878  0.017399975   -6.7124114    254.67132 
  473000  0.043866252 -0.0035955228   -6.7124112    254.67132 
  474000   0.04324032 0.0090691887    -6.712413    254.67132 
  475000  0.044731016 -0.011670307   -6.7124148    254.67132 
  476000  0.044232603  0.012787373   -6.7124099    254.67132 
  477000  0.041430816  0.020954761   -6.7124109    254.67132 
  478000  0.046957549 0.0076099671   -6.7124131    254.67132 
  479000  0.043437185  0.008146961   -6.7124118    254.67132 
  480000  0.042691564  0.012113352   -6.7124148    254.67132 
  481000  0.044053512 0.0037826174   -6.7124162    254.67132 
  482000  0.046897965 -0.025063544   -6.7124194    254.67132 
  483000  0.042316085  0.022360022   -6.7124221    254.67132 
  484000  0.044164214   0.02367987   -6.7124224    254.67132 
  485000  0.041523577  0.023102306   -6.7124242    254.67132 
  486000  0.044842522 0.0026761827   -6.7124221    254.67132 
  487000  0.042685026 -0.0010382648   -6.7124228    254.67132 
  488000  0.043596946 0.0067574102   -6.7124221    254.67132 
  489000  0.043237845  0.014440066   -6.7124215    254.67132 
  490000  0.047179138 -0.031921571   -6.7124209    254.67132 
  491000  0.044794769 -0.010274428   -6.7124203    254.67132 
  492000  0.045948096 -0.014872143   -6.7124173    254.67132 
  493000  0.044550067 0.0015871337    -6.712417    254.67132 
  494000  0.043944821  0.013515942   -6.7124159    254.67132 
  495000  0.043679749 -0.0052144509   -6.7124141    254.67132 
  496000  0.043765691 0.0029345287    -6.712416    254.67132 
  497000  0.045300766 0.00068167298   -6.7124136    254.67132 
  498000  0.041416715  0.028865073   -6.7124111    254.67132 
  499000  0.040198347  0.024212482   -6.7124071    254.67132 
  500000  0.042766196  0.013746963   -6.7124071    254.67132 
  501000  0.043452127  0.016222144   -6.7124089    254.67132 
  502000  0.042484325  0.016609452   -6.7124062    254.67132 
  503000  0.040993517  0.033224463   -6.7124089    254.67132 
  504000  0.042180798 -0.0046896712   -6.7124106    254.67132 
  505000  0.043519043  0.011780353   -6.7124107    254.67132 
  506000  0.042251353  0.016650183   -6.7124119    254.67132 
  507000  0.042582607  0.012981183   -6.7124139    254.67132 
  508000  0.041260487  0.035771654   -6.7124126    254.67132 
  509000  0.044342913 0.0067147285   -6.7124115    254.67132 
  510000  0.042081872  0.021638198   -6.7124114    254.67132 
  511000  0.042819808  0.018298779    -6.712412    254.67132 
  512000  0.041724604 -0.0017106033   -6.7124112    254.67132 
  513000  0.042971837  0.013637025   -6.7124125    254.67132 
  514000  0.044049944  0.005408162   -6.7124151    254.67132 
  515000  0.045326424 -0.0076251705    -6.712419    254.67132 
  516000  0.043607654 0.0073994664   -6.7124195    254.67132 
  517000  0.040116193  0.025872187   -6.7124206    254.67132 
  518000  0.041327039  0.034530039   -6.7124216    254.67132 
  519000  0.042587188  0.026943562    -6.712426    254.67132 
  520000  0.042975173  0.033909464   -6.7124266    254.67132 
  521000  0.042970706  0.017843262   -6.7124246    254.67132 
  522000  0.040822383  0.029794789   -6.7124235    254.67132 
  523000  0.045053367 -0.011019066   -6.7124286    254.67132 
  524000  0.041581213  0.014364105   -6.7124254    254.67132 
  525000  0.043734721 0.00038338879   -6.7124264    254.67132 
  526000  0.043082814   0.02983914    -6.712424    254.67132 
  527000  0.044885535 -0.0066205264   -6.7124252    254.67132 
  528000  0.044157651 0.0023236902   -6.7124236    254.67132 
  529000  0.044749213 -0.0040850322   -6.7124229    254.67132 
  530000  0.041910381   0.04574485   -6.7124185    254.67132 
  531000  0.041323124  0.022362767   -6.7124183    254.67132 
  532000  0.044460836 -0.0026123728   -6.7124213    254.67132 
  533000  0.041245214  0.044645556    -6.712417    254.67132 
  534000  0.042409589 0.0054103306   -6.7124168    254.67132 
  535000  0.042021331 0.0087577836   -6.7124147    254.67132 
  536000  0.041669623   0.02713724   -6.7124146    254.67132 
  537000  0.041480798  0.014079032   -6.7124187    254.67132 
  538000  0.044144178  0.010166291   -6.7124212    254.67132 
  539000  0.041654373  0.029883861   -6.7124195    254.67132 
  540000  0.046538905 -0.027095215   -6.7124221    254.67132 
  541000  0.040532051  0.029223515   -6.7124173    254.67132 
  542000  0.041627027  0.032332751   -6.7124194    254.67132 
  543000  0.042866033  0.011191122   -6.7124216    254.67132 
  544000  0.043531972  0.016661384   -6.7124245    254.67132 
  545000  0.043909862 0.0054402687   -6.7124229    254.67132 
  546000  0.044533898  0.027103545    -6.712423    254.67132 
  547000  0.043038974 0.0046596806   -6.7124187    254.67132 
  548000  0.045104735 -0.012588559   -6.7124194    254.67132 
  549000  0.042365095  0.029043005   -6.7124166    254.67132 
  550000  0.041843703  0.031717496   -6.7124155    254.67132 
  551000  0.043774067 0.0019249085   -6.7124196    254.67132 
  552000  0.042513483  0.024920602   -6.7124221    254.67132 
  553000  0.040502483  0.037596837   -6.7124199    254.67132 
  554000  0.040930394  0.029094946    -6.712414    254.67132 
  555000  0.042844569  0.004376839   -6.7124127    254.67132 
  556000  0.041664746  0.020857264   -6.7124096    254.67132 
  557000  0.045252251 -0.017288311   -6.7124071    254.67132 
  558000  0.043236544  0.022246708   -6.7124063    254.67132 
  559000  0.043372704 0.0086877273   -6.7124068    254.67132 
  560000  0.043885218 0.00053453019   -6.7124068    254.67132 
  561000  0.041273065  0.017425375   -6.7124031    254.67132 
  562000  0.043841335 0.0031638257    -6.712404    254.67132 
  563000  0.041901551  0.020397735   -6.7124075    254.67132 
  564000  0.042749797  0.012469507   -6.7124083    254.67132 
  565000  0.042085516  0.014385611   -6.7124113    254.67132 
  566000  0.044590666 -0.0057234792   -6.7124146    254.67132 
  567000  0.042229295  0.024731003   -6.7124105    254.67132 
  568000  0.043866035 0.0074030391   -6.7124089    254.67132 
  569000  0.045022061 -0.006577987   -6.7124095    254.67132 
  570000  0.043933043 -0.0032690883   -6.7124077    254.67132 
  571000  0.045329798 -0.0051635521   -6.7124079    254.67132 
  572000  0.040829957  0.028441205   -6.7124071    254.67132 
  573000  0.041371594  0.036600385   -6.7124041    254.67132 
  574000   0.04365822 0.0075787438   -6.7124005    254.67132 
  575000  0.043562456  0.015400925   -6.7124002    254.67132 
  576000  0.044489234 -0.0053162142   -6.7123999    254.67132 
  577000  0.043366499 0.0073270623   -6.7123992    254.67132 
  578000  0.041343655  0.030400663   -6.7124017    254.67132 
  579000  0.042653618  0.018424513   -6.7124033    254.67132 
  580000  0.044566146 -0.010318442   -6.7124043    254.67132 
  581000  0.043154857 0.0044602551   -6.7124024    254.67132 
  582000  0.043265946  0.020751116   -6.7124005    254.67132 
  583000  0.042994614 0.0051712086   -6.7124004    254.67132 
  584000  0.042444396  0.022236892   -6.7124038    254.67132 
  585000  0.042666408  0.017290556   -6.7124015    254.67132 
  586000    0.0433686 -0.0025305369   -6.7124026    254.67132 
  587000  0.041449385  0.028030369   -6.7123992    254.67132 
  588000  0.041952153  0.015582213    -6.712404    254.67132 
  589000  0.043106924 -0.011833177   -6.7124054    254.67132 
  590000  0.041724779  0.011592421   -6.7124013    254.67132 
  591000  0.041574602  0.041435322   -6.7124009    254.67132 
  592000  0.045021207 -0.017506969   -6.7124028    254.67132 
  593000  0.045694081 -0.027314933   -6.7124018    254.67132 
  594000  0.041123296  0.028520141   -6.7123991    254.67132 
  595000  0.043949112 0.0082802261   -6.7124002    254.67132 
  596000  0.043300482  0.015229711   -6.7124006    254.67132 
  597000  0.041217862  0.029231582   -6.7123973    254.67132 
  598000   0.04215774  0.019445352   -6.7124034    254.67132 
  599000  0.042534718  0.027694728   -6.7124061    254.67132 
  600000  0.044850421 0.0049465292   -6.7124073    254.67132 
Loop time of 137.467 on 1 procs for 500000 steps with 256 atoms

Pair  time (%) = 125.692 (91.4337)
Neigh time (%) = 0.931311 (0.677477)
Comm  time (%) = 6.11185 (4.44603)
Outpt time (%) = 0.0191836 (0.013955)
Other time (%) = 4.71352 (3.42883)

Nlocal:    256 ave 256 max 256 min
Histogram: 1 0 0 0 0 0 0 0 0 0
Nghost:    1454 ave 1454 max 1454 min
Histogram: 1 0 0 0 0 0 0 0 0 0
Neighs:    11512 ave 11512 max 11512 min
Histogram: 1 0 0 0 0 0 0 0 0 0

Total # of neighbors = 11512
Ave neighs/atom = 44.9688
Neighbor list builds = 1503
Dangerous builds = 0
#	run             10000
	unfix 		1


