ITEM: TIMESTEP
0
ITEM: NUMBER OF ATOMS
256
ITEM: BOX BOUNDS
0 6.3386
0 6.3386
0 6.3386
ITEM: ATOMS x y z 
0.61744 4.6068 1.0835 
6.0126 0.92556 0.44436 
1.6594 4.7955 3.7525 
3.6329 5.06 3.8527 
2.8394 3.2795 2.8014 
4.0228 2.9452 4.4021 
4.3834 1.0989 3.2766 
0.19934 0.54329 3.1837 
0.55434 3.4117 4.1615 
3.9619 1.2071 2.3868 
4.2216 2.0316 0.58738 
0.65235 4.8694 5.3644 
0.91841 4.4079 4.3926 
1.8762 4.5827 4.8248 
5.6765 2.5346 1.1172 
4.116 2.8948 5.5068 
4.5511 4.6252 4.195 
1.1401 2.9618 3.2067 
3.3014 1.1264 4.4799 
4.8472 0.11796 5.0105 
5.5713 4.5406 4.4035 
0.26056 5.8533 3.0528 
4.2527 5.6411 4.4962 
1.6404 6.1673 2.1543 
2.6806 3.3145 0.45625 
3.4386 3.8443 6.0543 
1.9826 5.8686 3.943 
0.21468 5.6638 1.2885 
0.11647 3.0796 0.5154 
5.8255 6.1646 0.36305 
2.1581 1.1629 4.6122 
0.81038 1.0068 2.0638 
2.7377 2.2291 3.2113 
0.075587 4.0644 4.8833 
5.2481 5.747 5.7688 
1.2161 1.9883 5.4786 
3.8918 4.4656 5.1994 
5.9079 5.0073 5.284 
4.2768 4.7366 2.2708 
0.45722 1.118 2.1541 
3.6224 2.8766 0.17477 
0.72141 3.5373 1.302 
3.8115 0.34095 0.64165 
5.9694 2.511 3.9314 
6.135 6.2044 4.0226 
2.1744 6.088 1.2523 
4.3071 4.843 2.1795 
1.4273 1.6064 0.17465 
4.9332 0.4163 0.63308 
5.9486 5.6701 2.2121 
4.2766 3.9482 1.5523 
4.4127 2.0213 4.8361 
5.0828 1.3248 2.3454 
2.9903 1.3523 5.4835 
1.0139 3.8218 5.3668 
0.88167 6.117 3.9017 
2.6256 3.9543 4.2895 
0.92876 2.9286 6.0564 
2.9071 4.8154 5.0713 
6.0813 4.0451 0.83672 
4.5659 2.5303 3.5542 
0.06644 3.2926 3.2561 
1.3095 4.7908 2.7978 
3.7186 2.1899 2.8844 
5.3083 4.0907 1.6923 
5.3265 4.8361 2.4952 
2.8838 1.4017 2.5767 
2.3606 5.0953 2.9943 
5.0773 1.1759 5.1483 
3.1556 5.804 4.5144 
5.4973 3.9898 5.3387 
3.8261 5.8272 2.1355 
6.2136 1.4811 3.7813 
1.1214 2.6423 0.69833 
1.652 0.18741 4.8473 
1.9039 2.5474 6.1052 
3.3857 4.4188 0.682 
5.7463 0.41641 2.2649 
2.6353 2.0279 4.2377 
1.2007 1.4714 4.2249 
5.7888 1.5225 5.9448 
1.6311 2.3986 4.4798 
5.4979 1.9691 3.1227 
3.9319 3.0463 2.1602 
5.1802 1.7209 4.1189 
2.1562 5.132 1.8399 
0.20265 2.2628 2.9842 
3.1438 3.0263 3.838 
0.14313 4.2794 3.7624 
1.6037 3.5647 4.4114 
1.7556 0.52736 0.53612 
0.53935 3.0809 2.3278 
6.2027 1.3629 2.5007 
3.2507 5.883 1.2407 
1.7416 3.0231 5.3564 
0.04426 3.4305 5.8001 
4.1807 4.4421 3.1995 
1.7591 3.607 6.2264 
2.6749 0.34355 4.0332 
0.79711 1.3438 3.2086 
0.075128 0.36493 5.9431 
5.9009 3.8616 2.5287 
4.9415 2.016 1.495 
2.7678 5.8449 2.3042 
5.637 2.0642 5.0323 
1.089 0.3324 2.9446 
3.7183 3.9692 4.1227 
3.1253 4.4493 6.1273 
2.583 0.90183 0.96342 
3.3732 0.29397 2.7845 
2.8053 6.1378 0.28066 
5.396 0.88706 3.2771 
1.3039 0.38948 1.2804 
0.59138 4.1434 2.1886 
5.5406 0.69655 4.3084 
2.4296 3.8824 5.413 
3.1166 5.8742 5.6091 
4.036 5.8181 3.1765 
2.2683 1.4967 0.85062 
1.4976 4.3145 1.6296 
2.7883 2.0189 1.0248 
1.7715 1.1334 2.6498 
0.14 2.3193 5.7021 
2.7351 0.38496 5.0915 
4.6872 2.296 2.515 
2.5425 2.9776 4.7042 
3.7925 5.6587 0.31342 
5.1974 2.9796 5.5009 
2.412 1.2331 3.5318 
3.9313 2.0535 1.7531 
0.74069 5.2953 2.1792 
5.3565 0.51988 5.9501 
2.5653 5.1839 0.76085 
2.6162 4.9985 4.0622 
0.42069 2.4534 1.4935 
0.58168 6.1575 0.39495 
0.79659 5.1054 0.1573 
6.0731 3.2934 1.6255 
2.5896 0.51794 2.0681 
3.4651 0.49619 5.9782 
0.77368 2.8203 4.9822 
1.6357 4.5971 0.60628 
5.3158 4.7317 6.1308 
4.3087 1.1549 1.2071 
4.8809 5.2861 3.4238 
4.1882 3.7493 0.51497 
2.7943 0.56691 1.0112 
1.4131 2.7877 1.7153 
2.1026 2.9378 3.685 
0.28056 1.9787 0.45016 
5.4516 6.1786 1.3862 
0.68787 5.0816 3.5882 
4.6126 3.7328 4.8107 
1.7169 3.5216 0.93347 
2.4716 4.2273 2.3369 
5.531 6.1419 3.1252 
0.94199 0.95644 5.1063 
4.8618 4.8633 5.18 
5.5049 3.6648 2.2221 
1.5575 4.5963 5.8653 
6.1403 4.7332 1.7295 
3.4992 1.1368 3.4182 
0.32846 1.8338 4.7633 
3.3383 3.4675 1.3093 
4.6835 2.8881 0.11154 
3.8686 3.3544 3.1594 
1.1276 0.40014 6.0089 
5.2384 3.3029 0.92745 
4.1137 5.5041 5.5653 
0.50982 1.3307 5.9877 
4.9143 5.5443 0.44684 
5.332 5.5799 4.4844 
2.2171 5.6399 5.007 
1.6498 1.9908 3.3956 
5.3716 3.0511 3.0406 
5.0244 4.3867 0.7318 
3.3856 3.5311 5.0301 
4.035 1.1424 5.311 
3.2947 4.9226 6.0544 
2.0969 1.8436 1.8835 
6.1733 0.97167 5.1089 
0.17637 5.3182 4.4972 
3.616 0.45448 1.7082 
3.5444 4.0378 2.3415 
2.2769 2.0919 5.3122 
5.9013 6.253 5.0921 
4.3966 0.97495 4.2748 
0.94238 4.0121 3.3003 
5.702 3.5399 4.0639 
3.2333 4.8844 1.694 
4.1685 4.9743 1.1067 
1.2443 5.4229 4.6093 
4.866 5.8101 2.353 
4.5499 3.8419 5.8572 
2.4971 4.2042 1.224 
2.9853 5.8409 3.4286 
2.5099 4.3136 0.076683 
0.61182 6.2449 5.0104 
3.0656 4.2229 3.3205 
3.3965 5.0565 2.7513 
1.6021 0.58146 3.838 
2.0402 3.9182 3.3094 
1.0787 2.0227 2.3862 
0.059504 1.4645 1.3999 
3.3501 2.2886 5.0012 
1.9854 2.6444 2.6008 
4.7247 3.8175 2.5772 
5.8048 2.376 1.0517 
4.4159 0.75054 6.0859 
6.085 3.0129 4.8821 
5.8303 2.3306 2.1452 
1.8636 1.1078 5.6292 
2.8289 2.9287 5.7683 
4.4558 0.44297 2.9794 
5.2008 1.6234 0.50675 
5.3553 4.2939 3.3768 
1.7546 0.85418 1.5596 
4.5005 1.4972 3.2923 
3.2222 2.3687 1.0124 
4.817 3.7418 3.8958 
2.1096 0.038949 5.8606 
1.301 5.397 1.2701 
5.9469 5.1004 0.60983 
3.104 1.4241 1.5532 
2.98 2.4344 2.1008 
4.6838 3.5877 3.7598 
0.082444 5.6469 5.9159 
1.6355 5.8111 0.35162 
5.0727 2.788 4.4608 
3.7366 0.19355 3.9065 
4.2669 2.9025 1.1615 
1.0749 0.098058 1.2828 
0.73675 0.92003 0.64982 
5.9034 5.2376 3.6218 
2.2183 0.17171 3.0343 
1.2842 5.6912 5.6725 
0.69251 2.3542 3.9267 
4.676 0.43338 1.9244 
2.3045 5.3127 6.0309 
1.1904 1.725 1.2652 
4.3799 6.008 1.2489 
5.0546 3.0614 1.9245 
2.3811 3.2835 1.7853 
3.4306 1.3278 0.52034 
0.80394 3.9121 0.24891 
3.7624 1.9575 5.9529 
1.5252 3.5993 2.4167 
1.4658 4.6604 2.6453 
1.4131 5.6536 3.0504 
3.7943 0.16459 4.9975 
5.4312 1.0078 1.3823 
5.1652 5.1669 1.4774 
3.7051 2.0156 3.9753 
2.1712 2.5304 1.013 
0.44634 0.70102 4.206 
4.8255 1.9958 5.8479 
ITEM: TIMESTEP
733
ITEM: NUMBER OF ATOMS
256
ITEM: BOX BOUNDS
0 6.3386
0 6.3386
0 6.3386
ITEM: ATOMS x y z 
0.619475 4.68216 1.252 
6.02113 0.874007 0.516506 
1.52075 4.93033 3.71387 
3.64737 5.09609 3.80348 
2.84743 3.34982 2.78301 
3.98172 2.93475 4.35412 
4.83665 6.31014 3.81416 
0.0484395 0.463556 3.28114 
0.553939 3.35148 4.3468 
3.8567 1.11052 2.20432 
4.15099 2.01597 0.556457 
0.726667 4.88204 5.34675 
0.986364 4.34878 4.41522 
1.90712 4.54925 4.91703 
5.61831 3.25795 0.997666 
4.30399 2.64649 5.3828 
4.41595 4.73492 4.50386 
1.08107 2.75794 2.9481 
3.39583 1.17462 4.3016 
4.81684 0.0698689 5.02371 
5.44962 4.48127 4.47491 
0.294174 5.76738 3.08705 
4.1614 5.77047 4.44875 
1.56229 6.27176 2.05064 
2.89566 3.36615 0.639307 
3.39211 3.88135 6.1719 
2.05166 5.9134 3.91129 
0.195505 5.67523 1.24002 
0.17549 3.0196 0.381461 
5.89281 6.12239 0.241898 
2.1823 1.26822 4.46732 
1.07496 0.966095 2.06086 
2.82022 2.36243 3.09877 
0.0540354 4.13914 4.88784 
5.39338 5.56409 5.6852 
1.26957 1.81421 5.30957 
3.93165 4.35071 5.37492 
6.02787 4.59897 5.8038 
4.42803 4.81035 2.6437 
0.30509 0.156629 2.26377 
3.75451 2.90868 0.0400336 
0.79119 3.65701 0.988586 
3.75761 0.247686 0.541979 
5.94576 2.44807 3.98698 
6.16142 6.06049 4.10382 
2.30777 6.06829 1.30243 
4.92922 5.1276 1.75776 
1.50288 1.49417 0.0337113 
5.05224 0.439959 0.777419 
5.89996 5.74549 2.09189 
4.25298 4.27547 1.71553 
4.33446 1.89941 4.59486 
4.88249 1.40323 2.40206 
3.02532 1.29525 5.26865 
0.994496 3.82528 5.36687 
0.974763 6.14646 3.88749 
2.51285 3.94727 4.28766 
0.939192 2.37848 6.20162 
3.37273 5.05138 4.8404 
6.18111 4.0725 0.616621 
4.67052 2.42889 3.63957 
0.189654 3.1946 3.37289 
0.604443 4.75991 3.09289 
3.82149 2.06367 2.74473 
5.3162 4.16747 1.99661 
5.47094 5.01037 2.70964 
2.87553 1.47736 2.47169 
2.32354 5.15937 2.96141 
5.09015 1.09288 5.1857 
3.1101 5.93181 4.35577 
5.49283 3.71134 5.23904 
3.92988 5.57269 2.02984 
6.27337 1.44307 3.78969 
1.0478 2.62221 0.879032 
1.62689 0.134324 4.77815 
1.96504 2.49732 0.266677 
3.32063 4.63029 0.648264 
5.59771 0.454189 2.36282 
2.57164 2.24334 4.14662 
1.12015 1.44057 4.26801 
5.73794 1.4509 6.03195 
1.57342 2.43719 4.4932 
5.47275 1.89917 3.15411 
3.87065 3.00449 2.19432 
5.27508 1.61482 4.18309 
2.0901 5.11119 1.81841 
0.145784 2.17072 3.00344 
3.04982 3.14834 3.86744 
0.0764794 4.20983 3.79804 
1.60623 3.48794 4.5693 
2.243 0.705001 0.147191 
0.223761 2.96126 2.30534 
0.0223081 1.21101 2.50577 
3.31608 5.67323 1.1195 
1.72403 2.74865 5.59155 
0.045288 3.51229 5.80275 
4.19722 4.24833 3.50224 
1.23165 3.40453 -0.00388113 
2.7391 0.432414 3.78339 
0.861121 1.36754 3.19169 
0.146192 0.427596 5.93567 
6.03652 3.89192 2.74682 
5.13316 2.32013 1.34311 
2.85824 5.79058 2.19337 
5.57427 2.01145 5.13182 
1.08047 0.33823 2.9503 
3.5947 4.00379 4.39081 
2.88435 4.19976 5.23935 
2.54934 1.70577 6.13183 
3.34936 0.262925 2.70535 
2.81956 6.07532 0.256788 
5.38057 0.840522 3.32381 
0.795357 0.2125 1.33759 
0.738757 3.88192 2.43389 
5.57685 0.590593 4.32722 
2.08269 3.69283 5.63756 
3.23138 5.90019 5.51966 
4.06035 5.80341 3.08414 
2.28816 1.53173 0.808491 
1.51972 4.08063 1.68925 
3.0141 2.28871 0.587551 
1.85943 1.08911 2.79904 
6.28976 2.37724 5.84623 
2.66405 0.391676 4.85861 
4.78678 2.49295 2.50064 
2.5517 3.05517 4.86931 
4.16303 0.0867244 5.86224 
5.29502 2.83815 5.80015 
2.57128 1.41497 3.50263 
4.16284 2.02102 1.70611 
0.0356283 4.74555 2.19235 
5.26766 0.431078 6.00672 
2.33768 5.17939 0.737067 
2.58707 4.98354 4.03559 
0.0280111 2.53362 1.34649 
0.621638 6.17359 0.363361 
1.0548 5.24287 0.196419 
6.29988 3.80513 1.65708 
2.52418 0.537603 2.0235 
3.1905 0.536534 5.95934 
0.763657 2.79021 5.2187 
1.51806 4.42142 0.669642 
4.28109 4.59503 6.33477 
4.16183 1.08279 1.12078 
4.78568 5.21454 3.59732 
4.26687 5.01617 0.95209 
2.84513 0.590291 1.00237 
1.22043 3.02796 1.83797 
1.98893 3.06323 3.60316 
0.252247 1.86837 0.530934 
6.02124 0.271708 1.37999 
0.49741 5.21435 4.06498 
4.44731 3.58664 5.91431 
1.84264 3.4026 0.870684 
2.55586 4.27551 2.34473 
5.60904 6.03963 3.15457 
0.899977 0.824462 5.1499 
4.97606 4.58975 5.49088 
5.54577 3.1171 2.07114 
1.56271 4.55375 5.92155 
5.83975 4.8127 1.28526 
3.53695 1.13191 3.24637 
0.28115 1.93232 4.78935 
3.34334 3.723 1.57159 
4.73798 2.96041 0.454494 
3.89529 3.10555 3.24526 
1.26102 0.441913 6.05054 
5.01938 4.16864 0.943955 
4.25966 5.40883 5.48396 
0.481495 1.43268 5.92062 
4.80856 5.88905 0.193046 
5.22014 5.55257 4.53911 
2.34924 5.54909 4.97768 
1.69303 2.01121 3.47171 
5.49883 3.00761 3.15393 
5.2987 4.9299 0.252156 
3.51863 3.32868 5.26317 
4.06655 1.18139 5.37106 
3.21714 4.91614 5.94382 
2.02556 1.48649 1.834 
6.16001 1.04111 5.109 
6.15671 5.2353 4.8953 
3.58909 0.228834 1.66478 
3.67935 3.99593 2.55857 
2.32618 2.04626 5.16483 
5.89096 6.3217 5.14758 
4.47493 0.855442 4.3283 
1.09875 3.79769 3.47931 
5.74995 3.49506 4.14405 
3.26084 4.79295 1.71846 
3.79456 5.58794 0.151456 
1.35734 5.42379 4.63772 
4.87105 5.94829 2.40684 
5.39415 3.81354 6.31663 
2.46939 4.23714 1.21998 
3.01736 5.83182 3.33237 
2.44277 4.26597 0.126313 
0.576991 6.10908 4.91744 
3.13694 4.19103 3.44202 
3.36649 4.9947 2.76311 
1.67197 0.638159 3.77973 
2.10897 4.14959 3.34812 
0.795597 2.02568 2.10136 
0.227755 1.25897 1.43836 
3.35316 2.26985 4.91031 
1.96995 2.41452 2.43478 
4.70004 3.61601 2.68136 
5.64742 2.36831 0.371305 
4.35891 0.99035 0.0448539 
6.1016 2.91045 4.94249 
5.81296 2.0665 2.14722 
1.9742 1.0162 5.47699 
2.7837 2.80079 5.91881 
4.43262 0.482952 2.90367 
5.10126 1.49952 0.600149 
5.29463 4.23909 3.41849 
1.74273 0.64486 1.13614 
4.5015 1.43547 3.42622 
3.74549 2.82946 1.13591 
4.54221 3.69895 4.83156 
2.22113 -0.00672965 5.71703 
1.31614 5.55436 1.19251 
0.00770405 5.11582 0.370886 
3.19372 1.5338 1.42571 
2.99044 2.44691 1.96269 
4.75189 3.44429 3.82089 
0.186463 5.67395 5.82262 
1.74046 6.08553 0.363584 
5.06225 2.7693 4.60889 
3.7833 0.229643 3.7816 
4.03304 3.78957 0.705912 
0.790357 5.48183 2.12692 
0.748381 0.894625 0.519145 
5.85658 5.12629 3.69814 
2.1919 0.0489178 2.92795 
1.30812 5.77274 5.65222 
0.699397 2.36353 3.89035 
4.6811 0.490254 1.82569 
2.24778 5.32653 6.03054 
1.22536 1.62092 1.1369 
4.39146 6.02786 1.19019 
4.64895 3.297 1.52221 
2.37871 3.32403 1.79437 
3.35498 1.2756 0.377007 
0.620901 4.28765 6.30597 
3.59882 1.96771 5.92807 
1.75296 3.51583 2.61634 
1.50044 4.62985 2.58646 
1.38286 5.66538 2.98342 
3.72405 0.305422 4.89632 
5.48915 1.20598 1.53932 
5.41933 5.76996 1.09607 
3.60654 2.10321 3.79648 
2.04447 2.43062 1.33504 
0.390265 0.623747 4.26704 
4.7607 1.89085 5.95814 
