ITEM: TIMESTEP
500000
ITEM: NUMBER OF ATOMS
256
ITEM: BOX BOUNDS
0 6.3386
0 6.3386
0 6.3386
ITEM: ATOMS f_myave[1] f_myave[2] f_myave[3] 
0.61744 4.60681 1.08348 
6.0126 0.925561 0.444363 
1.65936 4.79552 3.75249 
3.63292 5.05996 3.85273 
2.83938 3.27954 2.80143 
4.0228 2.94522 4.40209 
4.38338 1.09887 3.2766 
0.199342 0.54329 3.18369 
0.554336 3.41169 4.1615 
3.96188 1.2071 2.3868 
4.22156 2.03164 0.587381 
0.652349 4.86943 5.3644 
0.918407 4.40791 4.39257 
1.8762 4.58268 4.82478 
5.67649 2.5346 1.1172 
4.11602 2.89478 5.50684 
4.55114 4.62521 4.19497 
1.14011 2.96179 3.20675 
3.30144 1.12645 4.47988 
4.84721 0.117961 5.0105 
5.5713 4.5406 4.40346 
0.260565 5.85329 3.05275 
4.25275 5.64107 4.49615 
1.64036 6.16731 2.15429 
2.68056 3.3145 0.456248 
3.43862 3.8443 6.05432 
1.98258 5.86863 3.94299 
0.214679 5.66378 1.2885 
0.116466 3.07965 0.515396 
5.8255 6.16455 0.363051 
2.15808 1.16294 4.61223 
0.810381 1.00678 2.06381 
2.73772 2.22907 3.21128 
0.075587 4.06441 4.88329 
5.24814 5.74701 5.76885 
1.2161 1.9883 5.47862 
3.8918 4.46559 5.19937 
5.90791 5.00731 5.28403 
4.27676 4.73663 2.27075 
0.457224 1.11802 2.15409 
3.62241 2.87663 0.174766 
0.721414 3.53729 1.30198 
3.81155 0.340948 0.641655 
5.96936 2.511 3.9314 
6.13496 6.20437 4.02265 
2.1744 6.08799 1.25226 
4.30711 4.84299 2.17949 
1.42731 1.60645 0.174648 
4.93317 0.416303 0.633079 
5.94856 5.67011 2.21215 
4.27661 3.94822 1.55227 
4.41272 2.02135 4.83615 
5.08276 1.32476 2.34542 
2.99035 1.35226 5.4835 
1.01395 3.82181 5.36677 
0.88167 6.11703 3.90168 
2.62564 3.95431 4.28949 
0.928763 2.92861 6.05643 
2.90707 4.81543 5.07128 
6.08128 4.04512 0.836716 
4.56592 2.53027 3.55419 
0.0664402 3.29264 3.25608 
1.3095 4.79085 2.79785 
3.71862 2.18988 2.88442 
5.30831 4.0907 1.69225 
5.32646 4.83614 2.4952 
2.88382 1.40167 2.57674 
2.36059 5.09527 2.99429 
5.07728 1.17592 5.1483 
3.15556 5.80404 4.51444 
5.49725 3.98977 5.33865 
3.82614 5.82716 2.13546 
6.2136 1.48108 3.78131 
1.12136 2.64229 0.698334 
1.65197 0.18741 4.84729 
1.9039 2.54736 6.1052 
3.38575 4.41875 0.681995 
5.74632 0.41641 2.26485 
2.63528 2.02789 4.23769 
1.20074 1.47137 4.22487 
5.7888 1.52246 5.94481 
1.63107 2.39862 4.47983 
5.49792 1.96908 3.12273 
3.93194 3.04633 2.1602 
5.18018 1.72091 4.11889 
2.1562 5.13202 1.83988 
0.202649 2.26282 2.98425 
3.14382 3.02633 3.83804 
0.14313 4.27937 3.7624 
1.60368 3.56466 4.41137 
1.75557 0.527359 0.536125 
0.539349 3.08092 2.3278 
6.20268 1.36288 2.50074 
3.25069 5.88301 1.24067 
1.74159 3.02314 5.35639 
0.0442596 3.43049 5.80013 
4.18067 4.44215 3.19954 
1.75905 3.60701 6.22643 
2.67493 0.343551 4.03317 
0.797114 1.34375 3.20857 
0.075128 0.364926 5.94311 
5.90087 3.86162 2.52871 
4.94151 2.01602 1.49498 
2.76783 5.84493 2.30422 
5.63703 2.06415 5.03233 
1.08904 0.3324 2.94455 
3.71831 3.96917 4.12273 
3.1253 4.44928 6.12732 
2.58303 0.901829 0.963417 
3.3732 0.293975 2.78447 
2.80525 6.13782 0.280661 
5.39598 0.88706 3.27711 
1.30387 0.389477 1.28036 
0.591384 4.1434 2.18859 
5.54059 0.696546 4.30836 
2.42962 3.88235 5.41296 
3.11661 5.87423 5.60911 
4.03598 5.81814 3.17649 
2.26825 1.49666 0.850619 
1.49757 4.31447 1.62959 
2.78825 2.0189 1.0248 
1.7715 1.13339 2.64975 
0.139995 2.31933 5.70206 
2.73512 0.38496 5.09151 
4.68723 2.29597 2.51504 
2.54248 2.9776 4.70422 
3.79245 5.65871 0.313421 
5.19736 2.97959 5.50087 
2.41201 1.23312 3.53183 
3.93128 2.05348 1.7531 
0.740687 5.2953 2.17918 
5.3565 0.519883 5.95009 
2.56532 5.18393 0.760852 
2.61624 4.9985 4.06225 
0.420691 2.45343 1.4935 
0.581682 6.15749 0.39495 
0.796587 5.10543 0.157303 
6.07307 3.29339 1.62551 
2.58963 0.517943 2.0681 
3.46508 0.496194 5.9782 
0.773684 2.82032 4.98223 
1.63572 4.59708 0.606275 
5.31578 4.73173 6.13083 
4.3087 1.15495 1.20715 
4.88088 5.28609 3.42384 
4.1882 3.74933 0.514966 
2.7943 0.566906 1.01116 
1.41309 2.78774 1.71529 
2.10262 2.9378 3.68504 
0.28056 1.97874 0.450156 
5.45165 6.1786 1.38621 
0.687869 5.08162 3.5882 
4.61262 3.73282 4.8107 
1.71694 3.52156 0.933474 
2.47158 4.22733 2.33694 
5.53101 6.14187 3.12523 
0.941987 0.956435 5.10634 
4.86184 4.86334 5.18005 
5.50491 3.66483 2.22209 
1.55754 4.59628 5.86532 
6.14027 4.73318 1.72951 
3.49915 1.13677 3.41822 
0.328457 1.8338 4.76331 
3.33827 3.46751 1.30929 
4.68353 2.88815 0.111538 
3.86858 3.35445 3.15944 
1.12757 0.400135 6.00889 
5.23839 3.30289 0.927449 
4.11369 5.50408 5.56535 
0.509819 1.33066 5.98774 
4.91434 5.54427 0.446842 
5.33203 5.57986 4.48444 
2.21706 5.63987 5.00702 
1.64981 1.99083 3.39562 
5.37159 3.05106 3.04056 
5.02442 4.38669 0.731804 
3.38561 3.5311 5.03008 
4.035 1.14236 5.31105 
3.29471 4.92256 6.05437 
2.09687 1.84364 1.88353 
6.17333 0.971672 5.10887 
0.176369 5.31817 4.49723 
3.61599 0.454475 1.7082 
3.54442 4.03784 2.34154 
2.27695 2.09188 5.31225 
5.90125 6.25299 5.09207 
4.39658 0.974951 4.27477 
0.942377 4.01208 3.30032 
5.70202 3.53994 4.06394 
3.23331 4.88436 1.69398 
4.16849 4.9743 1.10674 
1.24434 5.42287 4.60934 
4.86598 5.81007 2.35304 
4.54987 3.84193 5.85722 
2.49705 4.2042 1.22401 
2.98532 5.84093 3.42863 
2.50985 4.31358 0.0766834 
0.611818 6.24489 5.01039 
3.06564 4.22287 3.32055 
3.39653 5.05655 2.75134 
1.60214 0.581462 3.838 
2.04025 3.91824 3.30938 
1.07866 2.02274 2.38624 
0.0595035 1.46446 1.3999 
3.35011 2.28857 5.00119 
1.98543 2.64437 2.60082 
4.72473 3.81747 2.57724 
5.80478 2.37598 1.05167 
4.41591 0.750542 6.08592 
6.08505 3.0129 4.88213 
5.83027 2.33059 2.1452 
1.86362 1.10783 5.62915 
2.82886 2.92866 5.76834 
4.4558 0.442973 2.97935 
5.2008 1.62343 0.506747 
5.35528 4.29388 3.37684 
1.75463 0.854183 1.55959 
4.50052 1.49717 3.29233 
3.22225 2.36875 1.01236 
4.81701 3.74182 3.89583 
2.10961 0.0389492 5.86063 
1.30098 5.39698 1.27013 
5.94689 5.10038 0.609832 
3.10399 1.42406 1.55319 
2.97996 2.43442 2.10079 
4.68384 3.58767 3.7598 
0.0824442 5.64692 5.91594 
1.63553 5.81113 0.351617 
5.07274 2.78797 4.46078 
3.73659 0.193551 3.90654 
4.26695 2.90249 1.16149 
1.07492 0.0980579 1.28283 
0.736749 0.920032 0.649822 
5.90343 5.23763 3.62182 
2.21834 0.17171 3.03426 
1.28425 5.69118 5.67248 
0.692507 2.35418 3.92674 
4.67596 0.433378 1.92438 
2.30451 5.31266 6.0309 
1.19036 1.72504 1.26524 
4.37986 6.00802 1.24892 
5.05464 3.0614 1.92453 
2.3811 3.28355 1.78532 
3.43055 1.32776 0.520337 
0.803944 3.91214 0.248907 
3.76241 1.95749 5.95288 
1.5252 3.59934 2.41667 
1.46577 4.66044 2.64526 
1.41307 5.65359 3.05041 
3.79431 0.16459 4.99752 
5.43119 1.00776 1.38229 
5.1652 5.16695 1.47741 
3.70512 2.01559 3.97527 
2.17118 2.53036 1.01299 
0.446338 0.701021 4.20598 
4.82546 1.99582 5.84792 
