# Position data for LJ Ar in 864 atom cell		

3456 atoms
1 atom types	

0.0 62.235 xlo xhi
0.0 6.2235 ylo yhi
0.0 6.2235 zlo zhi

#-15.16 0.0 0.0 xy xz yz

Masses

1 1.0

Atoms				

 4 37.341 9.3353 9.3353
1 1 0 0 0
2 1 0.77794 0.77794 0
3 1 0.77794 0 0.77794
4 1 0 0.77794 0.77794
5 1 0 0 1.5559
6 1 0.77794 0.77794 1.5559
7 1 0.77794 0 2.3338
8 1 0 0.77794 2.3338
9 1 0 0 3.1118
10 1 0.77794 0.77794 3.1118
11 1 0.77794 0 3.8897
12 1 0 0.77794 3.8897
13 1 0 0 4.6676
14 1 0.77794 0.77794 4.6676
15 1 0.77794 0 5.4456
16 1 0 0.77794 5.4456
17 1 0 0 6.2235
18 1 0.77794 0.77794 6.2235
19 1 0.77794 0 7.0015
20 1 0 0.77794 7.0015
21 1 0 0 7.7794
22 1 0.77794 0.77794 7.7794
23 1 0.77794 0 8.5574
24 1 0 0.77794 8.5574
25 1 0 1.5559 0
26 1 0.77794 2.3338 0
27 1 0.77794 1.5559 0.77794
28 1 0 2.3338 0.77794
29 1 0 1.5559 1.5559
30 1 0.77794 2.3338 1.5559
31 1 0.77794 1.5559 2.3338
32 1 0 2.3338 2.3338
33 1 0 1.5559 3.1118
34 1 0.77794 2.3338 3.1118
35 1 0.77794 1.5559 3.8897
36 1 0 2.3338 3.8897
37 1 0 1.5559 4.6676
38 1 0.77794 2.3338 4.6676
39 1 0.77794 1.5559 5.4456
40 1 0 2.3338 5.4456
41 1 0 1.5559 6.2235
42 1 0.77794 2.3338 6.2235
43 1 0.77794 1.5559 7.0015
44 1 0 2.3338 7.0015
45 1 0 1.5559 7.7794
46 1 0.77794 2.3338 7.7794
47 1 0.77794 1.5559 8.5574
48 1 0 2.3338 8.5574
49 1 0 3.1118 0
50 1 0.77794 3.8897 0
51 1 0.77794 3.1118 0.77794
52 1 0 3.8897 0.77794
53 1 0 3.1118 1.5559
54 1 0.77794 3.8897 1.5559
55 1 0.77794 3.1118 2.3338
56 1 0 3.8897 2.3338
57 1 0 3.1118 3.1118
58 1 0.77794 3.8897 3.1118
59 1 0.77794 3.1118 3.8897
60 1 0 3.8897 3.8897
61 1 0 3.1118 4.6676
62 1 0.77794 3.8897 4.6676
63 1 0.77794 3.1118 5.4456
64 1 0 3.8897 5.4456
65 1 0 3.1118 6.2235
66 1 0.77794 3.8897 6.2235
67 1 0.77794 3.1118 7.0015
68 1 0 3.8897 7.0015
69 1 0 3.1118 7.7794
70 1 0.77794 3.8897 7.7794
71 1 0.77794 3.1118 8.5574
72 1 0 3.8897 8.5574
73 1 0 4.6676 0
74 1 0.77794 5.4456 0
75 1 0.77794 4.6676 0.77794
76 1 0 5.4456 0.77794
77 1 0 4.6676 1.5559
78 1 0.77794 5.4456 1.5559
79 1 0.77794 4.6676 2.3338
80 1 0 5.4456 2.3338
81 1 0 4.6676 3.1118
82 1 0.77794 5.4456 3.1118
83 1 0.77794 4.6676 3.8897
84 1 0 5.4456 3.8897
85 1 0 4.6676 4.6676
86 1 0.77794 5.4456 4.6676
87 1 0.77794 4.6676 5.4456
88 1 0 5.4456 5.4456
89 1 0 4.6676 6.2235
90 1 0.77794 5.4456 6.2235
91 1 0.77794 4.6676 7.0015
92 1 0 5.4456 7.0015
93 1 0 4.6676 7.7794
94 1 0.77794 5.4456 7.7794
95 1 0.77794 4.6676 8.5574
96 1 0 5.4456 8.5574
97 1 0 6.2235 0
98 1 0.77794 7.0015 0
99 1 0.77794 6.2235 0.77794
100 1 0 7.0015 0.77794
101 1 0 6.2235 1.5559
102 1 0.77794 7.0015 1.5559
103 1 0.77794 6.2235 2.3338
104 1 0 7.0015 2.3338
105 1 0 6.2235 3.1118
106 1 0.77794 7.0015 3.1118
107 1 0.77794 6.2235 3.8897
108 1 0 7.0015 3.8897
109 1 0 6.2235 4.6676
110 1 0.77794 7.0015 4.6676
111 1 0.77794 6.2235 5.4456
112 1 0 7.0015 5.4456
113 1 0 6.2235 6.2235
114 1 0.77794 7.0015 6.2235
115 1 0.77794 6.2235 7.0015
116 1 0 7.0015 7.0015
117 1 0 6.2235 7.7794
118 1 0.77794 7.0015 7.7794
119 1 0.77794 6.2235 8.5574
120 1 0 7.0015 8.5574
121 1 0 7.7794 0
122 1 0.77794 8.5574 0
123 1 0.77794 7.7794 0.77794
124 1 0 8.5574 0.77794
125 1 0 7.7794 1.5559
126 1 0.77794 8.5574 1.5559
127 1 0.77794 7.7794 2.3338
128 1 0 8.5574 2.3338
129 1 0 7.7794 3.1118
130 1 0.77794 8.5574 3.1118
131 1 0.77794 7.7794 3.8897
132 1 0 8.5574 3.8897
133 1 0 7.7794 4.6676
134 1 0.77794 8.5574 4.6676
135 1 0.77794 7.7794 5.4456
136 1 0 8.5574 5.4456
137 1 0 7.7794 6.2235
138 1 0.77794 8.5574 6.2235
139 1 0.77794 7.7794 7.0015
140 1 0 8.5574 7.0015
141 1 0 7.7794 7.7794
142 1 0.77794 8.5574 7.7794
143 1 0.77794 7.7794 8.5574
144 1 0 8.5574 8.5574
145 1 1.5559 0 0
146 1 2.3338 0.77794 0
147 1 2.3338 0 0.77794
148 1 1.5559 0.77794 0.77794
149 1 1.5559 0 1.5559
150 1 2.3338 0.77794 1.5559
151 1 2.3338 0 2.3338
152 1 1.5559 0.77794 2.3338
153 1 1.5559 0 3.1118
154 1 2.3338 0.77794 3.1118
155 1 2.3338 0 3.8897
156 1 1.5559 0.77794 3.8897
157 1 1.5559 0 4.6676
158 1 2.3338 0.77794 4.6676
159 1 2.3338 0 5.4456
160 1 1.5559 0.77794 5.4456
161 1 1.5559 0 6.2235
162 1 2.3338 0.77794 6.2235
163 1 2.3338 0 7.0015
164 1 1.5559 0.77794 7.0015
165 1 1.5559 0 7.7794
166 1 2.3338 0.77794 7.7794
167 1 2.3338 0 8.5574
168 1 1.5559 0.77794 8.5574
169 1 1.5559 1.5559 0
170 1 2.3338 2.3338 0
171 1 2.3338 1.5559 0.77794
172 1 1.5559 2.3338 0.77794
173 1 1.5559 1.5559 1.5559
174 1 2.3338 2.3338 1.5559
175 1 2.3338 1.5559 2.3338
176 1 1.5559 2.3338 2.3338
177 1 1.5559 1.5559 3.1118
178 1 2.3338 2.3338 3.1118
179 1 2.3338 1.5559 3.8897
180 1 1.5559 2.3338 3.8897
181 1 1.5559 1.5559 4.6676
182 1 2.3338 2.3338 4.6676
183 1 2.3338 1.5559 5.4456
184 1 1.5559 2.3338 5.4456
185 1 1.5559 1.5559 6.2235
186 1 2.3338 2.3338 6.2235
187 1 2.3338 1.5559 7.0015
188 1 1.5559 2.3338 7.0015
189 1 1.5559 1.5559 7.7794
190 1 2.3338 2.3338 7.7794
191 1 2.3338 1.5559 8.5574
192 1 1.5559 2.3338 8.5574
193 1 1.5559 3.1118 0
194 1 2.3338 3.8897 0
195 1 2.3338 3.1118 0.77794
196 1 1.5559 3.8897 0.77794
197 1 1.5559 3.1118 1.5559
198 1 2.3338 3.8897 1.5559
199 1 2.3338 3.1118 2.3338
200 1 1.5559 3.8897 2.3338
201 1 1.5559 3.1118 3.1118
202 1 2.3338 3.8897 3.1118
203 1 2.3338 3.1118 3.8897
204 1 1.5559 3.8897 3.8897
205 1 1.5559 3.1118 4.6676
206 1 2.3338 3.8897 4.6676
207 1 2.3338 3.1118 5.4456
208 1 1.5559 3.8897 5.4456
209 1 1.5559 3.1118 6.2235
210 1 2.3338 3.8897 6.2235
211 1 2.3338 3.1118 7.0015
212 1 1.5559 3.8897 7.0015
213 1 1.5559 3.1118 7.7794
214 1 2.3338 3.8897 7.7794
215 1 2.3338 3.1118 8.5574
216 1 1.5559 3.8897 8.5574
217 1 1.5559 4.6676 0
218 1 2.3338 5.4456 0
219 1 2.3338 4.6676 0.77794
220 1 1.5559 5.4456 0.77794
221 1 1.5559 4.6676 1.5559
222 1 2.3338 5.4456 1.5559
223 1 2.3338 4.6676 2.3338
224 1 1.5559 5.4456 2.3338
225 1 1.5559 4.6676 3.1118
226 1 2.3338 5.4456 3.1118
227 1 2.3338 4.6676 3.8897
228 1 1.5559 5.4456 3.8897
229 1 1.5559 4.6676 4.6676
230 1 2.3338 5.4456 4.6676
231 1 2.3338 4.6676 5.4456
232 1 1.5559 5.4456 5.4456
233 1 1.5559 4.6676 6.2235
234 1 2.3338 5.4456 6.2235
235 1 2.3338 4.6676 7.0015
236 1 1.5559 5.4456 7.0015
237 1 1.5559 4.6676 7.7794
238 1 2.3338 5.4456 7.7794
239 1 2.3338 4.6676 8.5574
240 1 1.5559 5.4456 8.5574
241 1 1.5559 6.2235 0
242 1 2.3338 7.0015 0
243 1 2.3338 6.2235 0.77794
244 1 1.5559 7.0015 0.77794
245 1 1.5559 6.2235 1.5559
246 1 2.3338 7.0015 1.5559
247 1 2.3338 6.2235 2.3338
248 1 1.5559 7.0015 2.3338
249 1 1.5559 6.2235 3.1118
250 1 2.3338 7.0015 3.1118
251 1 2.3338 6.2235 3.8897
252 1 1.5559 7.0015 3.8897
253 1 1.5559 6.2235 4.6676
254 1 2.3338 7.0015 4.6676
255 1 2.3338 6.2235 5.4456
256 1 1.5559 7.0015 5.4456
257 1 1.5559 6.2235 6.2235
258 1 2.3338 7.0015 6.2235
259 1 2.3338 6.2235 7.0015
260 1 1.5559 7.0015 7.0015
261 1 1.5559 6.2235 7.7794
262 1 2.3338 7.0015 7.7794
263 1 2.3338 6.2235 8.5574
264 1 1.5559 7.0015 8.5574
265 1 1.5559 7.7794 0
266 1 2.3338 8.5574 0
267 1 2.3338 7.7794 0.77794
268 1 1.5559 8.5574 0.77794
269 1 1.5559 7.7794 1.5559
270 1 2.3338 8.5574 1.5559
271 1 2.3338 7.7794 2.3338
272 1 1.5559 8.5574 2.3338
273 1 1.5559 7.7794 3.1118
274 1 2.3338 8.5574 3.1118
275 1 2.3338 7.7794 3.8897
276 1 1.5559 8.5574 3.8897
277 1 1.5559 7.7794 4.6676
278 1 2.3338 8.5574 4.6676
279 1 2.3338 7.7794 5.4456
280 1 1.5559 8.5574 5.4456
281 1 1.5559 7.7794 6.2235
282 1 2.3338 8.5574 6.2235
283 1 2.3338 7.7794 7.0015
284 1 1.5559 8.5574 7.0015
285 1 1.5559 7.7794 7.7794
286 1 2.3338 8.5574 7.7794
287 1 2.3338 7.7794 8.5574
288 1 1.5559 8.5574 8.5574
289 1 3.1118 0 0
290 1 3.8897 0.77794 0
291 1 3.8897 0 0.77794
292 1 3.1118 0.77794 0.77794
293 1 3.1118 0 1.5559
294 1 3.8897 0.77794 1.5559
295 1 3.8897 0 2.3338
296 1 3.1118 0.77794 2.3338
297 1 3.1118 0 3.1118
298 1 3.8897 0.77794 3.1118
299 1 3.8897 0 3.8897
300 1 3.1118 0.77794 3.8897
301 1 3.1118 0 4.6676
302 1 3.8897 0.77794 4.6676
303 1 3.8897 0 5.4456
304 1 3.1118 0.77794 5.4456
305 1 3.1118 0 6.2235
306 1 3.8897 0.77794 6.2235
307 1 3.8897 0 7.0015
308 1 3.1118 0.77794 7.0015
309 1 3.1118 0 7.7794
310 1 3.8897 0.77794 7.7794
311 1 3.8897 0 8.5574
312 1 3.1118 0.77794 8.5574
313 1 3.1118 1.5559 0
314 1 3.8897 2.3338 0
315 1 3.8897 1.5559 0.77794
316 1 3.1118 2.3338 0.77794
317 1 3.1118 1.5559 1.5559
318 1 3.8897 2.3338 1.5559
319 1 3.8897 1.5559 2.3338
320 1 3.1118 2.3338 2.3338
321 1 3.1118 1.5559 3.1118
322 1 3.8897 2.3338 3.1118
323 1 3.8897 1.5559 3.8897
324 1 3.1118 2.3338 3.8897
325 1 3.1118 1.5559 4.6676
326 1 3.8897 2.3338 4.6676
327 1 3.8897 1.5559 5.4456
328 1 3.1118 2.3338 5.4456
329 1 3.1118 1.5559 6.2235
330 1 3.8897 2.3338 6.2235
331 1 3.8897 1.5559 7.0015
332 1 3.1118 2.3338 7.0015
333 1 3.1118 1.5559 7.7794
334 1 3.8897 2.3338 7.7794
335 1 3.8897 1.5559 8.5574
336 1 3.1118 2.3338 8.5574
337 1 3.1118 3.1118 0
338 1 3.8897 3.8897 0
339 1 3.8897 3.1118 0.77794
340 1 3.1118 3.8897 0.77794
341 1 3.1118 3.1118 1.5559
342 1 3.8897 3.8897 1.5559
343 1 3.8897 3.1118 2.3338
344 1 3.1118 3.8897 2.3338
345 1 3.1118 3.1118 3.1118
346 1 3.8897 3.8897 3.1118
347 1 3.8897 3.1118 3.8897
348 1 3.1118 3.8897 3.8897
349 1 3.1118 3.1118 4.6676
350 1 3.8897 3.8897 4.6676
351 1 3.8897 3.1118 5.4456
352 1 3.1118 3.8897 5.4456
353 1 3.1118 3.1118 6.2235
354 1 3.8897 3.8897 6.2235
355 1 3.8897 3.1118 7.0015
356 1 3.1118 3.8897 7.0015
357 1 3.1118 3.1118 7.7794
358 1 3.8897 3.8897 7.7794
359 1 3.8897 3.1118 8.5574
360 1 3.1118 3.8897 8.5574
361 1 3.1118 4.6676 0
362 1 3.8897 5.4456 0
363 1 3.8897 4.6676 0.77794
364 1 3.1118 5.4456 0.77794
365 1 3.1118 4.6676 1.5559
366 1 3.8897 5.4456 1.5559
367 1 3.8897 4.6676 2.3338
368 1 3.1118 5.4456 2.3338
369 1 3.1118 4.6676 3.1118
370 1 3.8897 5.4456 3.1118
371 1 3.8897 4.6676 3.8897
372 1 3.1118 5.4456 3.8897
373 1 3.1118 4.6676 4.6676
374 1 3.8897 5.4456 4.6676
375 1 3.8897 4.6676 5.4456
376 1 3.1118 5.4456 5.4456
377 1 3.1118 4.6676 6.2235
378 1 3.8897 5.4456 6.2235
379 1 3.8897 4.6676 7.0015
380 1 3.1118 5.4456 7.0015
381 1 3.1118 4.6676 7.7794
382 1 3.8897 5.4456 7.7794
383 1 3.8897 4.6676 8.5574
384 1 3.1118 5.4456 8.5574
385 1 3.1118 6.2235 0
386 1 3.8897 7.0015 0
387 1 3.8897 6.2235 0.77794
388 1 3.1118 7.0015 0.77794
389 1 3.1118 6.2235 1.5559
390 1 3.8897 7.0015 1.5559
391 1 3.8897 6.2235 2.3338
392 1 3.1118 7.0015 2.3338
393 1 3.1118 6.2235 3.1118
394 1 3.8897 7.0015 3.1118
395 1 3.8897 6.2235 3.8897
396 1 3.1118 7.0015 3.8897
397 1 3.1118 6.2235 4.6676
398 1 3.8897 7.0015 4.6676
399 1 3.8897 6.2235 5.4456
400 1 3.1118 7.0015 5.4456
401 1 3.1118 6.2235 6.2235
402 1 3.8897 7.0015 6.2235
403 1 3.8897 6.2235 7.0015
404 1 3.1118 7.0015 7.0015
405 1 3.1118 6.2235 7.7794
406 1 3.8897 7.0015 7.7794
407 1 3.8897 6.2235 8.5574
408 1 3.1118 7.0015 8.5574
409 1 3.1118 7.7794 0
410 1 3.8897 8.5574 0
411 1 3.8897 7.7794 0.77794
412 1 3.1118 8.5574 0.77794
413 1 3.1118 7.7794 1.5559
414 1 3.8897 8.5574 1.5559
415 1 3.8897 7.7794 2.3338
416 1 3.1118 8.5574 2.3338
417 1 3.1118 7.7794 3.1118
418 1 3.8897 8.5574 3.1118
419 1 3.8897 7.7794 3.8897
420 1 3.1118 8.5574 3.8897
421 1 3.1118 7.7794 4.6676
422 1 3.8897 8.5574 4.6676
423 1 3.8897 7.7794 5.4456
424 1 3.1118 8.5574 5.4456
425 1 3.1118 7.7794 6.2235
426 1 3.8897 8.5574 6.2235
427 1 3.8897 7.7794 7.0015
428 1 3.1118 8.5574 7.0015
429 1 3.1118 7.7794 7.7794
430 1 3.8897 8.5574 7.7794
431 1 3.8897 7.7794 8.5574
432 1 3.1118 8.5574 8.5574
433 1 4.6676 0 0
434 1 5.4456 0.77794 0
435 1 5.4456 0 0.77794
436 1 4.6676 0.77794 0.77794
437 1 4.6676 0 1.5559
438 1 5.4456 0.77794 1.5559
439 1 5.4456 0 2.3338
440 1 4.6676 0.77794 2.3338
441 1 4.6676 0 3.1118
442 1 5.4456 0.77794 3.1118
443 1 5.4456 0 3.8897
444 1 4.6676 0.77794 3.8897
445 1 4.6676 0 4.6676
446 1 5.4456 0.77794 4.6676
447 1 5.4456 0 5.4456
448 1 4.6676 0.77794 5.4456
449 1 4.6676 0 6.2235
450 1 5.4456 0.77794 6.2235
451 1 5.4456 0 7.0015
452 1 4.6676 0.77794 7.0015
453 1 4.6676 0 7.7794
454 1 5.4456 0.77794 7.7794
455 1 5.4456 0 8.5574
456 1 4.6676 0.77794 8.5574
457 1 4.6676 1.5559 0
458 1 5.4456 2.3338 0
459 1 5.4456 1.5559 0.77794
460 1 4.6676 2.3338 0.77794
461 1 4.6676 1.5559 1.5559
462 1 5.4456 2.3338 1.5559
463 1 5.4456 1.5559 2.3338
464 1 4.6676 2.3338 2.3338
465 1 4.6676 1.5559 3.1118
466 1 5.4456 2.3338 3.1118
467 1 5.4456 1.5559 3.8897
468 1 4.6676 2.3338 3.8897
469 1 4.6676 1.5559 4.6676
470 1 5.4456 2.3338 4.6676
471 1 5.4456 1.5559 5.4456
472 1 4.6676 2.3338 5.4456
473 1 4.6676 1.5559 6.2235
474 1 5.4456 2.3338 6.2235
475 1 5.4456 1.5559 7.0015
476 1 4.6676 2.3338 7.0015
477 1 4.6676 1.5559 7.7794
478 1 5.4456 2.3338 7.7794
479 1 5.4456 1.5559 8.5574
480 1 4.6676 2.3338 8.5574
481 1 4.6676 3.1118 0
482 1 5.4456 3.8897 0
483 1 5.4456 3.1118 0.77794
484 1 4.6676 3.8897 0.77794
485 1 4.6676 3.1118 1.5559
486 1 5.4456 3.8897 1.5559
487 1 5.4456 3.1118 2.3338
488 1 4.6676 3.8897 2.3338
489 1 4.6676 3.1118 3.1118
490 1 5.4456 3.8897 3.1118
491 1 5.4456 3.1118 3.8897
492 1 4.6676 3.8897 3.8897
493 1 4.6676 3.1118 4.6676
494 1 5.4456 3.8897 4.6676
495 1 5.4456 3.1118 5.4456
496 1 4.6676 3.8897 5.4456
497 1 4.6676 3.1118 6.2235
498 1 5.4456 3.8897 6.2235
499 1 5.4456 3.1118 7.0015
500 1 4.6676 3.8897 7.0015
501 1 4.6676 3.1118 7.7794
502 1 5.4456 3.8897 7.7794
503 1 5.4456 3.1118 8.5574
504 1 4.6676 3.8897 8.5574
505 1 4.6676 4.6676 0
506 1 5.4456 5.4456 0
507 1 5.4456 4.6676 0.77794
508 1 4.6676 5.4456 0.77794
509 1 4.6676 4.6676 1.5559
510 1 5.4456 5.4456 1.5559
511 1 5.4456 4.6676 2.3338
512 1 4.6676 5.4456 2.3338
513 1 4.6676 4.6676 3.1118
514 1 5.4456 5.4456 3.1118
515 1 5.4456 4.6676 3.8897
516 1 4.6676 5.4456 3.8897
517 1 4.6676 4.6676 4.6676
518 1 5.4456 5.4456 4.6676
519 1 5.4456 4.6676 5.4456
520 1 4.6676 5.4456 5.4456
521 1 4.6676 4.6676 6.2235
522 1 5.4456 5.4456 6.2235
523 1 5.4456 4.6676 7.0015
524 1 4.6676 5.4456 7.0015
525 1 4.6676 4.6676 7.7794
526 1 5.4456 5.4456 7.7794
527 1 5.4456 4.6676 8.5574
528 1 4.6676 5.4456 8.5574
529 1 4.6676 6.2235 0
530 1 5.4456 7.0015 0
531 1 5.4456 6.2235 0.77794
532 1 4.6676 7.0015 0.77794
533 1 4.6676 6.2235 1.5559
534 1 5.4456 7.0015 1.5559
535 1 5.4456 6.2235 2.3338
536 1 4.6676 7.0015 2.3338
537 1 4.6676 6.2235 3.1118
538 1 5.4456 7.0015 3.1118
539 1 5.4456 6.2235 3.8897
540 1 4.6676 7.0015 3.8897
541 1 4.6676 6.2235 4.6676
542 1 5.4456 7.0015 4.6676
543 1 5.4456 6.2235 5.4456
544 1 4.6676 7.0015 5.4456
545 1 4.6676 6.2235 6.2235
546 1 5.4456 7.0015 6.2235
547 1 5.4456 6.2235 7.0015
548 1 4.6676 7.0015 7.0015
549 1 4.6676 6.2235 7.7794
550 1 5.4456 7.0015 7.7794
551 1 5.4456 6.2235 8.5574
552 1 4.6676 7.0015 8.5574
553 1 4.6676 7.7794 0
554 1 5.4456 8.5574 0
555 1 5.4456 7.7794 0.77794
556 1 4.6676 8.5574 0.77794
557 1 4.6676 7.7794 1.5559
558 1 5.4456 8.5574 1.5559
559 1 5.4456 7.7794 2.3338
560 1 4.6676 8.5574 2.3338
561 1 4.6676 7.7794 3.1118
562 1 5.4456 8.5574 3.1118
563 1 5.4456 7.7794 3.8897
564 1 4.6676 8.5574 3.8897
565 1 4.6676 7.7794 4.6676
566 1 5.4456 8.5574 4.6676
567 1 5.4456 7.7794 5.4456
568 1 4.6676 8.5574 5.4456
569 1 4.6676 7.7794 6.2235
570 1 5.4456 8.5574 6.2235
571 1 5.4456 7.7794 7.0015
572 1 4.6676 8.5574 7.0015
573 1 4.6676 7.7794 7.7794
574 1 5.4456 8.5574 7.7794
575 1 5.4456 7.7794 8.5574
576 1 4.6676 8.5574 8.5574
577 1 6.2235 0 0
578 1 7.0015 0.77794 0
579 1 7.0015 0 0.77794
580 1 6.2235 0.77794 0.77794
581 1 6.2235 0 1.5559
582 1 7.0015 0.77794 1.5559
583 1 7.0015 0 2.3338
584 1 6.2235 0.77794 2.3338
585 1 6.2235 0 3.1118
586 1 7.0015 0.77794 3.1118
587 1 7.0015 0 3.8897
588 1 6.2235 0.77794 3.8897
589 1 6.2235 0 4.6676
590 1 7.0015 0.77794 4.6676
591 1 7.0015 0 5.4456
592 1 6.2235 0.77794 5.4456
593 1 6.2235 0 6.2235
594 1 7.0015 0.77794 6.2235
595 1 7.0015 0 7.0015
596 1 6.2235 0.77794 7.0015
597 1 6.2235 0 7.7794
598 1 7.0015 0.77794 7.7794
599 1 7.0015 0 8.5574
600 1 6.2235 0.77794 8.5574
601 1 6.2235 1.5559 0
602 1 7.0015 2.3338 0
603 1 7.0015 1.5559 0.77794
604 1 6.2235 2.3338 0.77794
605 1 6.2235 1.5559 1.5559
606 1 7.0015 2.3338 1.5559
607 1 7.0015 1.5559 2.3338
608 1 6.2235 2.3338 2.3338
609 1 6.2235 1.5559 3.1118
610 1 7.0015 2.3338 3.1118
611 1 7.0015 1.5559 3.8897
612 1 6.2235 2.3338 3.8897
613 1 6.2235 1.5559 4.6676
614 1 7.0015 2.3338 4.6676
615 1 7.0015 1.5559 5.4456
616 1 6.2235 2.3338 5.4456
617 1 6.2235 1.5559 6.2235
618 1 7.0015 2.3338 6.2235
619 1 7.0015 1.5559 7.0015
620 1 6.2235 2.3338 7.0015
621 1 6.2235 1.5559 7.7794
622 1 7.0015 2.3338 7.7794
623 1 7.0015 1.5559 8.5574
624 1 6.2235 2.3338 8.5574
625 1 6.2235 3.1118 0
626 1 7.0015 3.8897 0
627 1 7.0015 3.1118 0.77794
628 1 6.2235 3.8897 0.77794
629 1 6.2235 3.1118 1.5559
630 1 7.0015 3.8897 1.5559
631 1 7.0015 3.1118 2.3338
632 1 6.2235 3.8897 2.3338
633 1 6.2235 3.1118 3.1118
634 1 7.0015 3.8897 3.1118
635 1 7.0015 3.1118 3.8897
636 1 6.2235 3.8897 3.8897
637 1 6.2235 3.1118 4.6676
638 1 7.0015 3.8897 4.6676
639 1 7.0015 3.1118 5.4456
640 1 6.2235 3.8897 5.4456
641 1 6.2235 3.1118 6.2235
642 1 7.0015 3.8897 6.2235
643 1 7.0015 3.1118 7.0015
644 1 6.2235 3.8897 7.0015
645 1 6.2235 3.1118 7.7794
646 1 7.0015 3.8897 7.7794
647 1 7.0015 3.1118 8.5574
648 1 6.2235 3.8897 8.5574
649 1 6.2235 4.6676 0
650 1 7.0015 5.4456 0
651 1 7.0015 4.6676 0.77794
652 1 6.2235 5.4456 0.77794
653 1 6.2235 4.6676 1.5559
654 1 7.0015 5.4456 1.5559
655 1 7.0015 4.6676 2.3338
656 1 6.2235 5.4456 2.3338
657 1 6.2235 4.6676 3.1118
658 1 7.0015 5.4456 3.1118
659 1 7.0015 4.6676 3.8897
660 1 6.2235 5.4456 3.8897
661 1 6.2235 4.6676 4.6676
662 1 7.0015 5.4456 4.6676
663 1 7.0015 4.6676 5.4456
664 1 6.2235 5.4456 5.4456
665 1 6.2235 4.6676 6.2235
666 1 7.0015 5.4456 6.2235
667 1 7.0015 4.6676 7.0015
668 1 6.2235 5.4456 7.0015
669 1 6.2235 4.6676 7.7794
670 1 7.0015 5.4456 7.7794
671 1 7.0015 4.6676 8.5574
672 1 6.2235 5.4456 8.5574
673 1 6.2235 6.2235 0
674 1 7.0015 7.0015 0
675 1 7.0015 6.2235 0.77794
676 1 6.2235 7.0015 0.77794
677 1 6.2235 6.2235 1.5559
678 1 7.0015 7.0015 1.5559
679 1 7.0015 6.2235 2.3338
680 1 6.2235 7.0015 2.3338
681 1 6.2235 6.2235 3.1118
682 1 7.0015 7.0015 3.1118
683 1 7.0015 6.2235 3.8897
684 1 6.2235 7.0015 3.8897
685 1 6.2235 6.2235 4.6676
686 1 7.0015 7.0015 4.6676
687 1 7.0015 6.2235 5.4456
688 1 6.2235 7.0015 5.4456
689 1 6.2235 6.2235 6.2235
690 1 7.0015 7.0015 6.2235
691 1 7.0015 6.2235 7.0015
692 1 6.2235 7.0015 7.0015
693 1 6.2235 6.2235 7.7794
694 1 7.0015 7.0015 7.7794
695 1 7.0015 6.2235 8.5574
696 1 6.2235 7.0015 8.5574
697 1 6.2235 7.7794 0
698 1 7.0015 8.5574 0
699 1 7.0015 7.7794 0.77794
700 1 6.2235 8.5574 0.77794
701 1 6.2235 7.7794 1.5559
702 1 7.0015 8.5574 1.5559
703 1 7.0015 7.7794 2.3338
704 1 6.2235 8.5574 2.3338
705 1 6.2235 7.7794 3.1118
706 1 7.0015 8.5574 3.1118
707 1 7.0015 7.7794 3.8897
708 1 6.2235 8.5574 3.8897
709 1 6.2235 7.7794 4.6676
710 1 7.0015 8.5574 4.6676
711 1 7.0015 7.7794 5.4456
712 1 6.2235 8.5574 5.4456
713 1 6.2235 7.7794 6.2235
714 1 7.0015 8.5574 6.2235
715 1 7.0015 7.7794 7.0015
716 1 6.2235 8.5574 7.0015
717 1 6.2235 7.7794 7.7794
718 1 7.0015 8.5574 7.7794
719 1 7.0015 7.7794 8.5574
720 1 6.2235 8.5574 8.5574
721 1 7.7794 0 0
722 1 8.5574 0.77794 0
723 1 8.5574 0 0.77794
724 1 7.7794 0.77794 0.77794
725 1 7.7794 0 1.5559
726 1 8.5574 0.77794 1.5559
727 1 8.5574 0 2.3338
728 1 7.7794 0.77794 2.3338
729 1 7.7794 0 3.1118
730 1 8.5574 0.77794 3.1118
731 1 8.5574 0 3.8897
732 1 7.7794 0.77794 3.8897
733 1 7.7794 0 4.6676
734 1 8.5574 0.77794 4.6676
735 1 8.5574 0 5.4456
736 1 7.7794 0.77794 5.4456
737 1 7.7794 0 6.2235
738 1 8.5574 0.77794 6.2235
739 1 8.5574 0 7.0015
740 1 7.7794 0.77794 7.0015
741 1 7.7794 0 7.7794
742 1 8.5574 0.77794 7.7794
743 1 8.5574 0 8.5574
744 1 7.7794 0.77794 8.5574
745 1 7.7794 1.5559 0
746 1 8.5574 2.3338 0
747 1 8.5574 1.5559 0.77794
748 1 7.7794 2.3338 0.77794
749 1 7.7794 1.5559 1.5559
750 1 8.5574 2.3338 1.5559
751 1 8.5574 1.5559 2.3338
752 1 7.7794 2.3338 2.3338
753 1 7.7794 1.5559 3.1118
754 1 8.5574 2.3338 3.1118
755 1 8.5574 1.5559 3.8897
756 1 7.7794 2.3338 3.8897
757 1 7.7794 1.5559 4.6676
758 1 8.5574 2.3338 4.6676
759 1 8.5574 1.5559 5.4456
760 1 7.7794 2.3338 5.4456
761 1 7.7794 1.5559 6.2235
762 1 8.5574 2.3338 6.2235
763 1 8.5574 1.5559 7.0015
764 1 7.7794 2.3338 7.0015
765 1 7.7794 1.5559 7.7794
766 1 8.5574 2.3338 7.7794
767 1 8.5574 1.5559 8.5574
768 1 7.7794 2.3338 8.5574
769 1 7.7794 3.1118 0
770 1 8.5574 3.8897 0
771 1 8.5574 3.1118 0.77794
772 1 7.7794 3.8897 0.77794
773 1 7.7794 3.1118 1.5559
774 1 8.5574 3.8897 1.5559
775 1 8.5574 3.1118 2.3338
776 1 7.7794 3.8897 2.3338
777 1 7.7794 3.1118 3.1118
778 1 8.5574 3.8897 3.1118
779 1 8.5574 3.1118 3.8897
780 1 7.7794 3.8897 3.8897
781 1 7.7794 3.1118 4.6676
782 1 8.5574 3.8897 4.6676
783 1 8.5574 3.1118 5.4456
784 1 7.7794 3.8897 5.4456
785 1 7.7794 3.1118 6.2235
786 1 8.5574 3.8897 6.2235
787 1 8.5574 3.1118 7.0015
788 1 7.7794 3.8897 7.0015
789 1 7.7794 3.1118 7.7794
790 1 8.5574 3.8897 7.7794
791 1 8.5574 3.1118 8.5574
792 1 7.7794 3.8897 8.5574
793 1 7.7794 4.6676 0
794 1 8.5574 5.4456 0
795 1 8.5574 4.6676 0.77794
796 1 7.7794 5.4456 0.77794
797 1 7.7794 4.6676 1.5559
798 1 8.5574 5.4456 1.5559
799 1 8.5574 4.6676 2.3338
800 1 7.7794 5.4456 2.3338
801 1 7.7794 4.6676 3.1118
802 1 8.5574 5.4456 3.1118
803 1 8.5574 4.6676 3.8897
804 1 7.7794 5.4456 3.8897
805 1 7.7794 4.6676 4.6676
806 1 8.5574 5.4456 4.6676
807 1 8.5574 4.6676 5.4456
808 1 7.7794 5.4456 5.4456
809 1 7.7794 4.6676 6.2235
810 1 8.5574 5.4456 6.2235
811 1 8.5574 4.6676 7.0015
812 1 7.7794 5.4456 7.0015
813 1 7.7794 4.6676 7.7794
814 1 8.5574 5.4456 7.7794
815 1 8.5574 4.6676 8.5574
816 1 7.7794 5.4456 8.5574
817 1 7.7794 6.2235 0
818 1 8.5574 7.0015 0
819 1 8.5574 6.2235 0.77794
820 1 7.7794 7.0015 0.77794
821 1 7.7794 6.2235 1.5559
822 1 8.5574 7.0015 1.5559
823 1 8.5574 6.2235 2.3338
824 1 7.7794 7.0015 2.3338
825 1 7.7794 6.2235 3.1118
826 1 8.5574 7.0015 3.1118
827 1 8.5574 6.2235 3.8897
828 1 7.7794 7.0015 3.8897
829 1 7.7794 6.2235 4.6676
830 1 8.5574 7.0015 4.6676
831 1 8.5574 6.2235 5.4456
832 1 7.7794 7.0015 5.4456
833 1 7.7794 6.2235 6.2235
834 1 8.5574 7.0015 6.2235
835 1 8.5574 6.2235 7.0015
836 1 7.7794 7.0015 7.0015
837 1 7.7794 6.2235 7.7794
838 1 8.5574 7.0015 7.7794
839 1 8.5574 6.2235 8.5574
840 1 7.7794 7.0015 8.5574
841 1 7.7794 7.7794 0
842 1 8.5574 8.5574 0
843 1 8.5574 7.7794 0.77794
844 1 7.7794 8.5574 0.77794
845 1 7.7794 7.7794 1.5559
846 1 8.5574 8.5574 1.5559
847 1 8.5574 7.7794 2.3338
848 1 7.7794 8.5574 2.3338
849 1 7.7794 7.7794 3.1118
850 1 8.5574 8.5574 3.1118
851 1 8.5574 7.7794 3.8897
852 1 7.7794 8.5574 3.8897
853 1 7.7794 7.7794 4.6676
854 1 8.5574 8.5574 4.6676
855 1 8.5574 7.7794 5.4456
856 1 7.7794 8.5574 5.4456
857 1 7.7794 7.7794 6.2235
858 1 8.5574 8.5574 6.2235
859 1 8.5574 7.7794 7.0015
860 1 7.7794 8.5574 7.0015
861 1 7.7794 7.7794 7.7794
862 1 8.5574 8.5574 7.7794
863 1 8.5574 7.7794 8.5574
864 1 7.7794 8.5574 8.5574
865 1 9.3353 0 0
866 1 10.113 0.77794 0
867 1 10.113 0 0.77794
868 1 9.3353 0.77794 0.77794
869 1 9.3353 0 1.5559
870 1 10.113 0.77794 1.5559
871 1 10.113 0 2.3338
872 1 9.3353 0.77794 2.3338
873 1 9.3353 0 3.1118
874 1 10.113 0.77794 3.1118
875 1 10.113 0 3.8897
876 1 9.3353 0.77794 3.8897
877 1 9.3353 0 4.6676
878 1 10.113 0.77794 4.6676
879 1 10.113 0 5.4456
880 1 9.3353 0.77794 5.4456
881 1 9.3353 0 6.2235
882 1 10.113 0.77794 6.2235
883 1 10.113 0 7.0015
884 1 9.3353 0.77794 7.0015
885 1 9.3353 0 7.7794
886 1 10.113 0.77794 7.7794
887 1 10.113 0 8.5574
888 1 9.3353 0.77794 8.5574
889 1 9.3353 1.5559 0
890 1 10.113 2.3338 0
891 1 10.113 1.5559 0.77794
892 1 9.3353 2.3338 0.77794
893 1 9.3353 1.5559 1.5559
894 1 10.113 2.3338 1.5559
895 1 10.113 1.5559 2.3338
896 1 9.3353 2.3338 2.3338
897 1 9.3353 1.5559 3.1118
898 1 10.113 2.3338 3.1118
899 1 10.113 1.5559 3.8897
900 1 9.3353 2.3338 3.8897
901 1 9.3353 1.5559 4.6676
902 1 10.113 2.3338 4.6676
903 1 10.113 1.5559 5.4456
904 1 9.3353 2.3338 5.4456
905 1 9.3353 1.5559 6.2235
906 1 10.113 2.3338 6.2235
907 1 10.113 1.5559 7.0015
908 1 9.3353 2.3338 7.0015
909 1 9.3353 1.5559 7.7794
910 1 10.113 2.3338 7.7794
911 1 10.113 1.5559 8.5574
912 1 9.3353 2.3338 8.5574
913 1 9.3353 3.1118 0
914 1 10.113 3.8897 0
915 1 10.113 3.1118 0.77794
916 1 9.3353 3.8897 0.77794
917 1 9.3353 3.1118 1.5559
918 1 10.113 3.8897 1.5559
919 1 10.113 3.1118 2.3338
920 1 9.3353 3.8897 2.3338
921 1 9.3353 3.1118 3.1118
922 1 10.113 3.8897 3.1118
923 1 10.113 3.1118 3.8897
924 1 9.3353 3.8897 3.8897
925 1 9.3353 3.1118 4.6676
926 1 10.113 3.8897 4.6676
927 1 10.113 3.1118 5.4456
928 1 9.3353 3.8897 5.4456
929 1 9.3353 3.1118 6.2235
930 1 10.113 3.8897 6.2235
931 1 10.113 3.1118 7.0015
932 1 9.3353 3.8897 7.0015
933 1 9.3353 3.1118 7.7794
934 1 10.113 3.8897 7.7794
935 1 10.113 3.1118 8.5574
936 1 9.3353 3.8897 8.5574
937 1 9.3353 4.6676 0
938 1 10.113 5.4456 0
939 1 10.113 4.6676 0.77794
940 1 9.3353 5.4456 0.77794
941 1 9.3353 4.6676 1.5559
942 1 10.113 5.4456 1.5559
943 1 10.113 4.6676 2.3338
944 1 9.3353 5.4456 2.3338
945 1 9.3353 4.6676 3.1118
946 1 10.113 5.4456 3.1118
947 1 10.113 4.6676 3.8897
948 1 9.3353 5.4456 3.8897
949 1 9.3353 4.6676 4.6676
950 1 10.113 5.4456 4.6676
951 1 10.113 4.6676 5.4456
952 1 9.3353 5.4456 5.4456
953 1 9.3353 4.6676 6.2235
954 1 10.113 5.4456 6.2235
955 1 10.113 4.6676 7.0015
956 1 9.3353 5.4456 7.0015
957 1 9.3353 4.6676 7.7794
958 1 10.113 5.4456 7.7794
959 1 10.113 4.6676 8.5574
960 1 9.3353 5.4456 8.5574
961 1 9.3353 6.2235 0
962 1 10.113 7.0015 0
963 1 10.113 6.2235 0.77794
964 1 9.3353 7.0015 0.77794
965 1 9.3353 6.2235 1.5559
966 1 10.113 7.0015 1.5559
967 1 10.113 6.2235 2.3338
968 1 9.3353 7.0015 2.3338
969 1 9.3353 6.2235 3.1118
970 1 10.113 7.0015 3.1118
971 1 10.113 6.2235 3.8897
972 1 9.3353 7.0015 3.8897
973 1 9.3353 6.2235 4.6676
974 1 10.113 7.0015 4.6676
975 1 10.113 6.2235 5.4456
976 1 9.3353 7.0015 5.4456
977 1 9.3353 6.2235 6.2235
978 1 10.113 7.0015 6.2235
979 1 10.113 6.2235 7.0015
980 1 9.3353 7.0015 7.0015
981 1 9.3353 6.2235 7.7794
982 1 10.113 7.0015 7.7794
983 1 10.113 6.2235 8.5574
984 1 9.3353 7.0015 8.5574
985 1 9.3353 7.7794 0
986 1 10.113 8.5574 0
987 1 10.113 7.7794 0.77794
988 1 9.3353 8.5574 0.77794
989 1 9.3353 7.7794 1.5559
990 1 10.113 8.5574 1.5559
991 1 10.113 7.7794 2.3338
992 1 9.3353 8.5574 2.3338
993 1 9.3353 7.7794 3.1118
994 1 10.113 8.5574 3.1118
995 1 10.113 7.7794 3.8897
996 1 9.3353 8.5574 3.8897
997 1 9.3353 7.7794 4.6676
998 1 10.113 8.5574 4.6676
999 1 10.113 7.7794 5.4456
1000 1 9.3353 8.5574 5.4456
1001 1 9.3353 7.7794 6.2235
1002 1 10.113 8.5574 6.2235
1003 1 10.113 7.7794 7.0015
1004 1 9.3353 8.5574 7.0015
1005 1 9.3353 7.7794 7.7794
1006 1 10.113 8.5574 7.7794
1007 1 10.113 7.7794 8.5574
1008 1 9.3353 8.5574 8.5574
1009 1 10.891 0 0
1010 1 11.669 0.77794 0
1011 1 11.669 0 0.77794
1012 1 10.891 0.77794 0.77794
1013 1 10.891 0 1.5559
1014 1 11.669 0.77794 1.5559
1015 1 11.669 0 2.3338
1016 1 10.891 0.77794 2.3338
1017 1 10.891 0 3.1118
1018 1 11.669 0.77794 3.1118
1019 1 11.669 0 3.8897
1020 1 10.891 0.77794 3.8897
1021 1 10.891 0 4.6676
1022 1 11.669 0.77794 4.6676
1023 1 11.669 0 5.4456
1024 1 10.891 0.77794 5.4456
1025 1 10.891 0 6.2235
1026 1 11.669 0.77794 6.2235
1027 1 11.669 0 7.0015
1028 1 10.891 0.77794 7.0015
1029 1 10.891 0 7.7794
1030 1 11.669 0.77794 7.7794
1031 1 11.669 0 8.5574
1032 1 10.891 0.77794 8.5574
1033 1 10.891 1.5559 0
1034 1 11.669 2.3338 0
1035 1 11.669 1.5559 0.77794
1036 1 10.891 2.3338 0.77794
1037 1 10.891 1.5559 1.5559
1038 1 11.669 2.3338 1.5559
1039 1 11.669 1.5559 2.3338
1040 1 10.891 2.3338 2.3338
1041 1 10.891 1.5559 3.1118
1042 1 11.669 2.3338 3.1118
1043 1 11.669 1.5559 3.8897
1044 1 10.891 2.3338 3.8897
1045 1 10.891 1.5559 4.6676
1046 1 11.669 2.3338 4.6676
1047 1 11.669 1.5559 5.4456
1048 1 10.891 2.3338 5.4456
1049 1 10.891 1.5559 6.2235
1050 1 11.669 2.3338 6.2235
1051 1 11.669 1.5559 7.0015
1052 1 10.891 2.3338 7.0015
1053 1 10.891 1.5559 7.7794
1054 1 11.669 2.3338 7.7794
1055 1 11.669 1.5559 8.5574
1056 1 10.891 2.3338 8.5574
1057 1 10.891 3.1118 0
1058 1 11.669 3.8897 0
1059 1 11.669 3.1118 0.77794
1060 1 10.891 3.8897 0.77794
1061 1 10.891 3.1118 1.5559
1062 1 11.669 3.8897 1.5559
1063 1 11.669 3.1118 2.3338
1064 1 10.891 3.8897 2.3338
1065 1 10.891 3.1118 3.1118
1066 1 11.669 3.8897 3.1118
1067 1 11.669 3.1118 3.8897
1068 1 10.891 3.8897 3.8897
1069 1 10.891 3.1118 4.6676
1070 1 11.669 3.8897 4.6676
1071 1 11.669 3.1118 5.4456
1072 1 10.891 3.8897 5.4456
1073 1 10.891 3.1118 6.2235
1074 1 11.669 3.8897 6.2235
1075 1 11.669 3.1118 7.0015
1076 1 10.891 3.8897 7.0015
1077 1 10.891 3.1118 7.7794
1078 1 11.669 3.8897 7.7794
1079 1 11.669 3.1118 8.5574
1080 1 10.891 3.8897 8.5574
1081 1 10.891 4.6676 0
1082 1 11.669 5.4456 0
1083 1 11.669 4.6676 0.77794
1084 1 10.891 5.4456 0.77794
1085 1 10.891 4.6676 1.5559
1086 1 11.669 5.4456 1.5559
1087 1 11.669 4.6676 2.3338
1088 1 10.891 5.4456 2.3338
1089 1 10.891 4.6676 3.1118
1090 1 11.669 5.4456 3.1118
1091 1 11.669 4.6676 3.8897
1092 1 10.891 5.4456 3.8897
1093 1 10.891 4.6676 4.6676
1094 1 11.669 5.4456 4.6676
1095 1 11.669 4.6676 5.4456
1096 1 10.891 5.4456 5.4456
1097 1 10.891 4.6676 6.2235
1098 1 11.669 5.4456 6.2235
1099 1 11.669 4.6676 7.0015
1100 1 10.891 5.4456 7.0015
1101 1 10.891 4.6676 7.7794
1102 1 11.669 5.4456 7.7794
1103 1 11.669 4.6676 8.5574
1104 1 10.891 5.4456 8.5574
1105 1 10.891 6.2235 0
1106 1 11.669 7.0015 0
1107 1 11.669 6.2235 0.77794
1108 1 10.891 7.0015 0.77794
1109 1 10.891 6.2235 1.5559
1110 1 11.669 7.0015 1.5559
1111 1 11.669 6.2235 2.3338
1112 1 10.891 7.0015 2.3338
1113 1 10.891 6.2235 3.1118
1114 1 11.669 7.0015 3.1118
1115 1 11.669 6.2235 3.8897
1116 1 10.891 7.0015 3.8897
1117 1 10.891 6.2235 4.6676
1118 1 11.669 7.0015 4.6676
1119 1 11.669 6.2235 5.4456
1120 1 10.891 7.0015 5.4456
1121 1 10.891 6.2235 6.2235
1122 1 11.669 7.0015 6.2235
1123 1 11.669 6.2235 7.0015
1124 1 10.891 7.0015 7.0015
1125 1 10.891 6.2235 7.7794
1126 1 11.669 7.0015 7.7794
1127 1 11.669 6.2235 8.5574
1128 1 10.891 7.0015 8.5574
1129 1 10.891 7.7794 0
1130 1 11.669 8.5574 0
1131 1 11.669 7.7794 0.77794
1132 1 10.891 8.5574 0.77794
1133 1 10.891 7.7794 1.5559
1134 1 11.669 8.5574 1.5559
1135 1 11.669 7.7794 2.3338
1136 1 10.891 8.5574 2.3338
1137 1 10.891 7.7794 3.1118
1138 1 11.669 8.5574 3.1118
1139 1 11.669 7.7794 3.8897
1140 1 10.891 8.5574 3.8897
1141 1 10.891 7.7794 4.6676