  LAMMPS description
 
      88   atoms
       0   bonds
       0   angles
       0   dihedrals
 
      11   atom types
      13   bond types
      24   angle types
      25   dihedral types
 
       0  100.000000     xlo xhi
       0  100.000000     ylo yhi
       0  100.000000     zlo zhi
  0.0000000      0.0000000      0.0000000     xy xz yz

  Masses

       1   12.010000
       2   12.010000
       3   12.010000
       4   12.010000
       5   16.000000
       6   16.000000
       7   12.010000
       8   12.010000
       9   12.010000
      10   1.0100000
      11   1.0100000

   Atoms

       1       0       1    0.000000   50.993000   53.067000   57.215000
       2       0       1    0.000000   50.567371   51.966302   55.802632
       3       0       1    0.000000   49.403148   51.305542   56.210223
       4       0       1    0.000000   48.836064   51.100187   57.289668
       5       0       1    0.000000   49.168766   52.025250   58.524287
       6       0       1    0.000000   49.961679   52.840267   58.341784
       7       0       1    0.000000   49.777040   54.210104   58.921386
       8       0       1    0.000000   50.342766   55.255423   57.983163
       9       0       1    0.000000   50.719289   54.508307   56.817845
      10       0       1    0.000000   50.799878   55.075528   55.728438
      11       0       1    0.000000   50.462024   54.097108   54.469130
      12       0       1    0.000000   50.334563   52.907590   54.701009
      13       0       1    0.000000   49.264896   52.202473   54.013645
      14       0       1    0.000000   48.674281   51.188228   54.961252
      15       0       1    0.000000   47.382021   51.038494   54.899366
      16       0       1    0.000000   46.673579   50.859245   56.204257
      17       0       1    0.000000   47.361701   50.922715   57.302191
      18       0       1    0.000000   46.773537   51.584070   58.478237
      19       0       1    0.000000   47.864407   52.281410   59.177892
      20       0       1    0.000000   47.670145   53.444040   59.591297
      21       0       1    0.000000   48.653112   54.526229   59.518645
      22       0       1    0.000000   47.985758   55.810948   59.330808
      23       0       1    0.000000   48.506649   56.657087   58.570446
      24       0       1    0.000000   49.742887   56.416472   57.820745
      25       0       1    0.000000   49.660700   56.935612   56.514629
      26       0       1    0.000000   50.158611   56.290879   55.450797
      27       0       1    0.000000   49.421662   56.216521   54.195422
      28       0       1    0.000000   49.653207   54.908852   53.643537
      29       0       1    0.000000   48.676738   54.249960   53.038354
      30       0       1    0.000000   48.463114   52.867779   53.227158
      31       0       1    0.000000   46.986711   52.608837   53.234688
      32       0       1    0.000000   46.490549   51.729424   54.002870
      33       0       1    0.000000   45.248106   51.996400   54.738097
      34       0       1    0.000000   45.340441   51.473558   56.089718
      35       0       1    0.000000   44.845589   52.062004   57.095605
      36       0       1    0.000000   45.597694   52.170553   58.384607
      37       0       1    0.000000   45.353501   53.457407   58.931140
      38       0       1    0.000000   46.337644   54.118687   59.537121
      39       0       1    0.000000   46.543458   55.551257   59.343262
      40       0       1    0.000000   45.735447   56.209584   58.575221
      41       0       1    0.000000   46.324248   57.193801   57.644371
      42       0       1    0.000000   47.623598   57.390936   57.645476
      43       0       1    0.000000   48.346678   57.512738   56.358893
      44       0       1    0.000000   47.683749   57.464749   55.221016
      45       0       1    0.000000   48.248658   56.820590   54.101288
      46       0       1    0.000000   47.138431   56.110884   53.363499
      47       0       1    0.000000   47.350556   54.974938   52.966882
      48       0       1    0.000000   46.329696   53.889355   53.045158
      49       0       1    0.000000   45.213284   54.158062   53.634481
      50       0       1    0.000000   44.654538   53.156393   54.547681
      51       0       1    0.000000   44.136616   53.880045   55.698696
      52       0       1    0.000000   44.251447   53.340441   56.898866
      53       0       1    0.000000   44.510841   54.249519   58.061021
      54       0       1    0.000000   44.684701   55.491691   57.872940
      55       0       1    0.000000   44.586713   56.099580   56.484480
      56       0       1    0.000000   44.299096   55.310487   55.507945
      57       0       1    0.000000   44.987923   55.499517   54.223775
      58       0       1    0.000000   45.897397   56.389649   54.057926
      59       0       1    0.000000   46.222352   57.261069   55.257780
      60       0       1    0.000000   45.569964   57.104703   56.392175
      61       0       2   -0.030000   51.236278   12.655810   52.410121
      62       0       3    0.000000   52.202000   50.820000   57.562000
      63       0       4   -0.115000   52.515047   52.045117   59.106810
      64       0       4   -0.115000   53.721874   50.568301   59.725311
      65       0       4   -0.115000   52.825393   48.781962   57.537491
      66       0       4   -0.115000   52.030909   47.753017   58.192943
      67       0       5   -0.500000   54.121534   54.221030   52.932674
      68       0       6   -0.170000   57.061816   53.978393   53.934330
      69       0       4   -0.115000   52.581935   49.696821   58.027124
      70       0       7   -0.120000   54.393087   52.022714   58.103825
      71       0       7   -0.120000   52.848326   48.494411   56.009158
      72       0       7   -0.120000   54.656072   52.054703   52.987524
      73       0       8    0.700000   54.442279   54.278841   53.061158
      74       0       9   -0.180000   54.131495   53.606644   53.139164
      75       0      10    0.115000   52.514818   52.044887   59.106291
      76       0      10    0.115000   52.773878   92.997671   60.369867
      77       0      10    0.115000   52.639029   49.220133   57.565168
      78       0      10    0.115000   51.971450   47.500685   57.497306
      79       0      10    0.115000   52.363274   50.322507   57.136789
      80       0      11    0.060000   53.277078   56.662450   56.419767
      81       0      11    0.060000   54.517693   52.364371   57.143812
      82       0      11    0.060000   53.077622   55.526775   53.539888
      83       0      11    0.060000   56.321213   52.026125   85.145720
      84       0      11    0.060000   96.684067   55.286537   62.330986
      85       0      11    0.060000   55.002102   52.198447   52.940240
      86       0      11    0.060000   53.405511   77.732374   54.106277
      87       0      11    0.060000   52.367206   55.923381   92.050116
      88       0      11    0.060000   57.223754   54.002496   53.868433

   Bonds


   Angles


   Dihedrals


