********************************************************************************
*                       GENERAL UTILITY LATTICE PROGRAM                        *
*                                 Julian Gale                                  *
*                      Nanochemistry Research Institute                        *
*                           Department of Chemistry                            *
*                    Curtin University, Western Australia                      *
********************************************************************************
* Version = 4.1.0 * Last modified =  21st June 2013                            *
********************************************************************************
*  optimise     - perform optimisation run                                     *
*  phonon       - calculate phonons for final geometry                         *
*  thermal      - calculate thermal conductivity for final geometry            *
*  molecule     - molecule option activated, Coulomb subtract within molecule  *
*  compare      - compare initial and final structures                         *
********************************************************************************

  Job Started  at 15:53.39  8th July       2013                               

  Number of CPUs =     1


  Total number of configurations input =   1

********************************************************************************
*  Input for Configuration =   1                                               *
********************************************************************************

  Formula = C72O2H14                                                    

  Number of irreducible atoms/shells =      88


  Total number atoms/shells =      88

  Dimensionality = 3               :  Bulk   



  Cartesian lattice vectors (Angstroms) :

      100.000000    0.000000    0.000000
        0.000000  100.000000    0.000000
        0.000000    0.000000  100.000000

  Cell parameters (Angstroms/Degrees):

  a =     100.0000    alpha =  90.0000
  b =     100.0000    beta  =  90.0000
  c =     100.0000    gamma =  90.0000

  Initial cell volume =     1000000.000000 Angs**3

  Temperature of configuration = 0.5000E+05 K 

  Pressure of configuration =         0.000 GPa 

  Fractional coordinates of asymmetric unit :

--------------------------------------------------------------------------------
   No.  Atomic       x           y          z         Charge      Occupancy
        Label      (Frac)      (Frac)     (Frac)        (e)         (Frac)  
--------------------------------------------------------------------------------
      1 C1    c    0.509930    0.530670    0.572150     0.00000    1.000000    
      2 C1    c    0.506450 *  0.521040 *  0.559520 *   0.00000    1.000000    
      3 C1    c    0.494670 *  0.512100 *  0.561460 *   0.00000    1.000000    
      4 C1    c    0.488070 *  0.510710 *  0.573510 *   0.00000    1.000000    
      5 C1    c    0.491250 *  0.519410 *  0.584940 *   0.00000    1.000000    
      6 C1    c    0.500860 *  0.529150 *  0.583900 *   0.00000    1.000000    
      7 C1    c    0.498250 *  0.542330 *  0.589170 *   0.00000    1.000000    
      8 C1    c    0.503860 *  0.552170 *  0.580140 *   0.00000    1.000000    
      9 C1    c    0.509970 *  0.545160 *  0.569060 *   0.00000    1.000000    
     10 C1    c    0.508850 *  0.550420 *  0.556430 *   0.00000    1.000000    
     11 C1    c    0.505550 *  0.541690 *  0.544960 *   0.00000    1.000000    
     12 C1    c    0.503770 *  0.528150 *  0.546730 *   0.00000    1.000000    
     13 C1    c    0.492710 *  0.521620 *  0.540160 *   0.00000    1.000000    
     14 C1    c    0.487090 *  0.511860 *  0.549230 *   0.00000    1.000000    
     15 C1    c    0.473460 *  0.509420 *  0.549120 *   0.00000    1.000000    
     16 C1    c    0.466560 *  0.507600 *  0.561700 *   0.00000    1.000000    
     17 C1    c    0.473710 *  0.508420 *  0.573570 *   0.00000    1.000000    
     18 C1    c    0.468000 *  0.515440 *  0.584950 *   0.00000    1.000000    
     19 C1    c    0.478740 *  0.522290 *  0.591870 *   0.00000    1.000000    
     20 C1    c    0.476550 *  0.534820 *  0.597430 *   0.00000    1.000000    
     21 C1    c    0.486470 *  0.545160 *  0.596060 *   0.00000    1.000000    
     22 C1    c    0.479810 *  0.557870 *  0.594150 *   0.00000    1.000000    
     23 C1    c    0.485210 *  0.567240 *  0.585480 *   0.00000    1.000000    
     24 C1    c    0.497540 *  0.564450 *  0.578360 *   0.00000    1.000000    
     25 C1    c    0.496590 *  0.569970 *  0.565170 *   0.00000    1.000000    
     26 C1    c    0.501980 *  0.563030 *  0.554330 *   0.00000    1.000000    
     27 C1    c    0.494660 *  0.562250 *  0.541870 *   0.00000    1.000000    
     28 C1    c    0.496880 *  0.549180 *  0.536190 *   0.00000    1.000000    
     29 C1    c    0.486540 *  0.542670 *  0.529410 *   0.00000    1.000000    
     30 C1    c    0.484440 *  0.528640 *  0.531480 *   0.00000    1.000000    
     31 C1    c    0.470100 *  0.526210 *  0.531500 *   0.00000    1.000000    
     32 C1    c    0.464740 *  0.516760 *  0.540160 *   0.00000    1.000000    
     33 C1    c    0.452430 *  0.519570 *  0.547270 *   0.00000    1.000000    
     34 C1    c    0.453520 *  0.514010 *  0.560580 *   0.00000    1.000000    
     35 C1    c    0.448070 *  0.520700 *  0.571370 *   0.00000    1.000000    
     36 C1    c    0.455490 *  0.521530 *  0.583860 *   0.00000    1.000000    
     37 C1    c    0.453200 *  0.534570 *  0.589590 *   0.00000    1.000000    
     38 C1    c    0.463530 *  0.541180 *  0.596290 *   0.00000    1.000000    
     39 C1    c    0.465530 *  0.555400 *  0.594270 *   0.00000    1.000000    
     40 C1    c    0.457150 *  0.562450 *  0.585670 *   0.00000    1.000000    
     41 C1    c    0.462820 *  0.572310 *  0.576570 *   0.00000    1.000000    
     42 C1    c    0.476550 *  0.574670 *  0.576500 *   0.00000    1.000000    
     43 C1    c    0.483610 *  0.576330 *  0.563910 *   0.00000    1.000000    
     44 C1    c    0.476620 *  0.575570 *  0.551950 *   0.00000    1.000000    
     45 C1    c    0.482250 *  0.568490 *  0.540680 *   0.00000    1.000000    
     46 C1    c    0.471430 *  0.561690 *  0.533660 *   0.00000    1.000000    
     47 C1    c    0.473560 *  0.549210 *  0.528160 *   0.00000    1.000000    
     48 C1    c    0.463450 *  0.538880 *  0.529510 *   0.00000    1.000000    
     49 C1    c    0.451590 *  0.541610 *  0.536280 *   0.00000    1.000000    
     50 C1    c    0.445950 *  0.531770 *  0.545340 *   0.00000    1.000000    
     51 C1    c    0.440240 *  0.538830 *  0.556670 *   0.00000    1.000000    
     52 C1    c    0.441350 *  0.533390 *  0.569390 *   0.00000    1.000000    
     53 C1    c    0.444480 *  0.542000 *  0.580700 *   0.00000    1.000000    
     54 C1    c    0.446500 *  0.555520 *  0.578690 *   0.00000    1.000000    
     55 C1    c    0.445420 *  0.561220 *  0.565340 *   0.00000    1.000000    
     56 C1    c    0.442340 *  0.553010 *  0.554640 *   0.00000    1.000000    
     57 C1    c    0.449340 *  0.554730 *  0.542010 *   0.00000    1.000000    
     58 C1    c    0.459080 *  0.564550 *  0.540670 *   0.00000    1.000000    
     59 C1    c    0.462300 *  0.573130 *  0.552080 *   0.00000    1.000000    
     60 C1    c    0.455520 *  0.571500 *  0.564110 *   0.00000    1.000000    
     61 C7    c    0.519650 *  0.520240 *  0.566960 *  -0.03000    1.000000    
     62 C3    c    0.522020 *  0.508200 *  0.575620 *   0.00000    1.000000    
     63 C2    c    0.524960 *  0.509820 *  0.589150 *  -0.11500    1.000000    
     64 C2    c    0.527600 *  0.498750 *  0.597210 *  -0.11500    1.000000    
     65 C2    c    0.527450 *  0.486060 *  0.591720 *  -0.11500    1.000000    
     66 C2    c    0.524650 *  0.484340 *  0.578270 *  -0.11500    1.000000    
     67 O1    c    0.533060 *  0.541600 *  0.530860 *  -0.50000    1.000000    
     68 O2    c    0.554430 *  0.546430 *  0.535800 *  -0.17000    1.000000    
     69 C2    c    0.521840 *  0.495330 *  0.570270 *  -0.11500    1.000000    
     70 C5    c    0.532010 *  0.525510 *  0.559570 *  -0.12000    1.000000    
     71 C5    c    0.535750 *  0.517570 *  0.547080 *  -0.12000    1.000000    
     72 C5    c    0.547400 *  0.524250 *  0.539610 *  -0.12000    1.000000    
     73 C4    c    0.543910 *  0.538170 *  0.534990 *   0.70000    1.000000    
     74 C6    c    0.551990 *  0.560270 *  0.531980 *  -0.18000    1.000000    
     75 H1    c    0.525080 *  0.519310 *  0.592870 *   0.11500    1.000000    
     76 H1    c    0.530130 *  0.500250 *  0.607030 *   0.11500    1.000000    
     77 H1    c    0.529870 *  0.478130 *  0.597470 *   0.11500    1.000000    
     78 H1    c    0.524110 *  0.475330 *  0.574030 *   0.11500    1.000000    
     79 H1    c    0.519350 *  0.493060 *  0.560520 *   0.11500    1.000000    
     80 H2    c    0.530150 *  0.535050 *  0.556900 *   0.06000    1.000000    
     81 H2    c    0.540310 *  0.525630 *  0.566560 *   0.06000    1.000000    
     82 H2    c    0.527630 *  0.517030 *  0.540280 *   0.06000    1.000000    
     83 H2    c    0.538250 *  0.508070 *  0.549830 *   0.06000    1.000000    
     84 H2    c    0.555400 *  0.524800 *  0.545380 *   0.06000    1.000000    
     85 H2    c    0.549990 *  0.519230 *  0.531120 *   0.06000    1.000000    
     86 H2    c    0.547500 *  0.560700 *  0.523500 *   0.06000    1.000000    
     87 H2    c    0.545650 *  0.564520 *  0.539440 *   0.06000    1.000000    
     88 H2    c    0.561570 *  0.564260 *  0.531430 *   0.06000    1.000000    
--------------------------------------------------------------------------------



  Molecule list generated from bond lengths :

  Total number of molecules =     1

--------------------------------------------------------------------------------
Molecule No./:  Atoms
Periodicity  :  
--------------------------------------------------------------------------------
     1  0    : C1   c     1 C1   c     2 C1   c     3 C1   c     4 C1   c     5
             : C1   c     6 C1   c     7 C1   c     8 C1   c     9 C1   c    10
             : C1   c    11 C1   c    12 C1   c    13 C1   c    14 C1   c    15
             : C1   c    16 C1   c    17 C1   c    18 C1   c    19 C1   c    20
             : C1   c    21 C1   c    22 C1   c    23 C1   c    24 C1   c    25
             : C1   c    26 C1   c    27 C1   c    28 C1   c    29 C1   c    30
             : C1   c    31 C1   c    32 C1   c    33 C1   c    34 C1   c    35
             : C1   c    36 C1   c    37 C1   c    38 C1   c    39 C1   c    40
             : C1   c    41 C1   c    42 C1   c    43 C1   c    44 C1   c    45
             : C1   c    46 C1   c    47 C1   c    48 C1   c    49 C1   c    50
             : C1   c    51 C1   c    52 C1   c    53 C1   c    54 C1   c    55
             : C1   c    56 C1   c    57 C1   c    58 C1   c    59 C1   c    60
             : C7   c    61 C3   c    62 C2   c    63 C2   c    64 C2   c    65
             : C2   c    66 O1   c    67 O2   c    68 C2   c    69 C5   c    70
             : C5   c    71 C5   c    72 C4   c    73 C6   c    74 H1   c    75
             : H1   c    76 H1   c    77 H1   c    78 H1   c    79 H2   c    80
             : H2   c    81 H2   c    82 H2   c    83 H2   c    84 H2   c    85
             : H2   c    86 H2   c    87 H2   c    88
--------------------------------------------------------------------------------

  Brillouin zone sampling points :

--------------------------------------------------------------------------------
  Point number          x          y          z            Weight
--------------------------------------------------------------------------------
        1           0.000000   0.000000   0.000000         1.0000
--------------------------------------------------------------------------------


********************************************************************************
*  General input information                                                   *
********************************************************************************

  Species output for all configurations : 

--------------------------------------------------------------------------------
  Species    Type    Atomic    Atomic    Charge       Radii (Angs)     Library
                     Number     Mass       (e)     Cova   Ionic  VDW   Symbol
--------------------------------------------------------------------------------
    C1       Core        6      12.01   0.000000   0.770  0.000  1.530          
    C7       Core        6      12.01  -0.030000   0.770  0.000  1.530          
    C3       Core        6      12.01   0.000000   0.770  0.000  1.530          
    C2       Core        6      12.01  -0.115000   0.770  0.000  1.530          
    O1       Core        8      16.00  -0.500000   0.730  0.000  1.360          
    O2       Core        8      16.00  -0.170000   0.730  0.000  1.360          
    C5       Core        6      12.01  -0.120000   0.770  0.000  1.530          
    C4       Core        6      12.01   0.700000   0.770  0.000  1.530          
    C6       Core        6      12.01  -0.180000   0.770  0.000  1.530          
    H1       Core        1       1.01   0.115000   0.370  0.000  1.080          
    H2       Core        1       1.01   0.060000   0.370  0.000  1.080          
--------------------------------------------------------------------------------


  Lattice summation method = Wolf et al

  Modified method - smoothed energy only / correct forces

  Eta    =     0.223000 Angstrom**-1
  Cutoff =    12.000000 Angstrom

  Time limit = Infinity

  Maximum range for interatomic potentials =    100000.000000 Angstroms

  Intramolecular potentials :

--------------------------------------------------------------------------------
Atom  Types   Potential         A         B         C         D     Cutoffs(Ang)
  1     2                                                            Min    Max 
--------------------------------------------------------------------------------
C2   c C2   c Harmonic       40.7      1.40      0.00      0.00     0.000 1 Bond
                                                                    single      
C2   c C3   c Harmonic       40.7      1.40      0.00      0.00     0.000 1 Bond
                                                                    single      
C3   c C7   c Harmonic       27.5      1.51      0.00      0.00     0.000 1 Bond
                                                                    single      
H1   c C2   c Harmonic       31.8      1.08      0.00      0.00     0.000 1 Bond
                                                                    single      
C5   c C7   c Harmonic       23.2      1.53      0.00      0.00     0.000 1 Bond
                                                                    single      
C5   c C5   c Harmonic       23.2      1.53      0.00      0.00     0.000 1 Bond
                                                                    single      
C1   c C7   c Harmonic       27.5      1.51      0.00      0.00     0.000 1 Bond
                                                                    single      
C4   c C5   c Harmonic       27.5      1.51      0.00      0.00     0.000 1 Bond
                                                                    single      
C6   c O2   c Harmonic       27.8      1.41      0.00      0.00     0.000 1 Bond
                                                                    single      
H2   c C5   c Harmonic       29.5      1.09      0.00      0.00     0.000 1 Bond
                                                                    single      
H2   c C6   c Harmonic       29.5      1.09      0.00      0.00     0.000 1 Bond
                                                                    single      
C4   c O1   c Harmonic       45.1      1.23      0.00      0.00     0.000 1 Bond
                                                                    single      
C4   c O2   c Harmonic       18.6      1.33      0.00      0.00     0.000 1 Bond
                                                                    single      
--------------------------------------------------------------------------------

  Intermolecular potentials :

--------------------------------------------------------------------------------
Atom  Types   Potential         A         B         C         D     Cutoffs(Ang)
  1     2                                                            Min    Max 
--------------------------------------------------------------------------------
C1   c C1   c Lenn/es 12  6 0.700E-01  3.55      0.00      0.00     0.000 12.000
C1   c C2   c Lenn/es 12  6 0.700E-01  3.55      0.00      0.00     0.000 12.000
C2   c C2   c Lenn/es 12  6 0.700E-01  3.55      0.00      0.00     0.000 12.000
C1   c C3   c Lenn/es 12  6 0.700E-01  3.55      0.00      0.00     0.000 12.000
C2   c C3   c Lenn/es 12  6 0.700E-01  3.55      0.00      0.00     0.000 12.000
C3   c C3   c Lenn/es 12  6 0.700E-01  3.55      0.00      0.00     0.000 12.000
C1   c C4   c Lenn/es 12  6 0.857E-01  3.65      0.00      0.00     0.000 12.000
C2   c C4   c Lenn/es 12  6 0.857E-01  3.65      0.00      0.00     0.000 12.000
C3   c C4   c Lenn/es 12  6 0.857E-01  3.65      0.00      0.00     0.000 12.000
C4   c C4   c Lenn/es 12  6 0.105      3.75      0.00      0.00     0.000 12.000
C1   c C5   c Lenn/es 12  6 0.680E-01  3.52      0.00      0.00     0.000 12.000
C2   c C5   c Lenn/es 12  6 0.680E-01  3.52      0.00      0.00     0.000 12.000
C3   c C5   c Lenn/es 12  6 0.680E-01  3.52      0.00      0.00     0.000 12.000
C4   c C5   c Lenn/es 12  6 0.832E-01  3.62      0.00      0.00     0.000 12.000
C5   c C5   c Lenn/es 12  6 0.660E-01  3.50      0.00      0.00     0.000 12.000
C1   c C6   c Lenn/es 12  6 0.680E-01  3.52      0.00      0.00     0.000 12.000
C2   c C6   c Lenn/es 12  6 0.680E-01  3.52      0.00      0.00     0.000 12.000
C3   c C6   c Lenn/es 12  6 0.680E-01  3.52      0.00      0.00     0.000 12.000
C4   c C6   c Lenn/es 12  6 0.832E-01  3.62      0.00      0.00     0.000 12.000
C5   c C6   c Lenn/es 12  6 0.660E-01  3.50      0.00      0.00     0.000 12.000
C6   c C6   c Lenn/es 12  6 0.660E-01  3.50      0.00      0.00     0.000 12.000
C1   c C7   c Lenn/es 12  6 0.680E-01  3.52      0.00      0.00     0.000 12.000
C2   c C7   c Lenn/es 12  6 0.680E-01  3.52      0.00      0.00     0.000 12.000
C3   c C7   c Lenn/es 12  6 0.680E-01  3.52      0.00      0.00     0.000 12.000
C4   c C7   c Lenn/es 12  6 0.832E-01  3.62      0.00      0.00     0.000 12.000
C5   c C7   c Lenn/es 12  6 0.660E-01  3.50      0.00      0.00     0.000 12.000
C6   c C7   c Lenn/es 12  6 0.660E-01  3.50      0.00      0.00     0.000 12.000
C7   c C7   c Lenn/es 12  6 0.660E-01  3.50      0.00      0.00     0.000 12.000
C1   c O1   c Lenn/es 12  6 0.121      3.24      0.00      0.00     0.000 12.000
C2   c O1   c Lenn/es 12  6 0.121      3.24      0.00      0.00     0.000 12.000
C3   c O1   c Lenn/es 12  6 0.121      3.24      0.00      0.00     0.000 12.000
C4   c O1   c Lenn/es 12  6 0.148      3.33      0.00      0.00     0.000 12.000
C5   c O1   c Lenn/es 12  6 0.118      3.22      0.00      0.00     0.000 12.000
C6   c O1   c Lenn/es 12  6 0.118      3.22      0.00      0.00     0.000 12.000
C7   c O1   c Lenn/es 12  6 0.118      3.22      0.00      0.00     0.000 12.000
O1   c O1   c Lenn/es 12  6 0.210      2.96      0.00      0.00     0.000 12.000
C1   c O2   c Lenn/es 12  6 0.990E-01  3.21      0.00      0.00     0.000 12.000
C2   c O2   c Lenn/es 12  6 0.990E-01  3.21      0.00      0.00     0.000 12.000
C3   c O2   c Lenn/es 12  6 0.990E-01  3.21      0.00      0.00     0.000 12.000
C4   c O2   c Lenn/es 12  6 0.121      3.30      0.00      0.00     0.000 12.000
C5   c O2   c Lenn/es 12  6 0.961E-01  3.19      0.00      0.00     0.000 12.000
C6   c O2   c Lenn/es 12  6 0.961E-01  3.19      0.00      0.00     0.000 12.000
C7   c O2   c Lenn/es 12  6 0.961E-01  3.19      0.00      0.00     0.000 12.000
O1   c O2   c Lenn/es 12  6 0.171      2.93      0.00      0.00     0.000 12.000
O2   c O2   c Lenn/es 12  6 0.140      2.90      0.00      0.00     0.000 12.000
H1   c C1   c Lenn/es 12  6 0.458E-01  2.93      0.00      0.00     0.000 12.000
H1   c C2   c Lenn/es 12  6 0.458E-01  2.93      0.00      0.00     0.000 12.000
H1   c C3   c Lenn/es 12  6 0.458E-01  2.93      0.00      0.00     0.000 12.000
H1   c C4   c Lenn/es 12  6 0.561E-01  3.01      0.00      0.00     0.000 12.000
H1   c C5   c Lenn/es 12  6 0.445E-01  2.91      0.00      0.00     0.000 12.000
H1   c C6   c Lenn/es 12  6 0.445E-01  2.91      0.00      0.00     0.000 12.000
H1   c C7   c Lenn/es 12  6 0.445E-01  2.91      0.00      0.00     0.000 12.000
H1   c O1   c Lenn/es 12  6 0.794E-01  2.68      0.00      0.00     0.000 12.000
H1   c O2   c Lenn/es 12  6 0.648E-01  2.65      0.00      0.00     0.000 12.000
H1   c H1   c Lenn/es 12  6 0.300E-01  2.42      0.00      0.00     0.000 12.000
H2   c C1   c Lenn/es 12  6 0.458E-01  2.98      0.00      0.00     0.000 12.000
H2   c C2   c Lenn/es 12  6 0.458E-01  2.98      0.00      0.00     0.000 12.000
H2   c C3   c Lenn/es 12  6 0.458E-01  2.98      0.00      0.00     0.000 12.000
H2   c C4   c Lenn/es 12  6 0.561E-01  3.06      0.00      0.00     0.000 12.000
H2   c C5   c Lenn/es 12  6 0.445E-01  2.96      0.00      0.00     0.000 12.000
H2   c C6   c Lenn/es 12  6 0.445E-01  2.96      0.00      0.00     0.000 12.000
H2   c C7   c Lenn/es 12  6 0.445E-01  2.96      0.00      0.00     0.000 12.000
H2   c O1   c Lenn/es 12  6 0.794E-01  2.72      0.00      0.00     0.000 12.000
H2   c O2   c Lenn/es 12  6 0.648E-01  2.69      0.00      0.00     0.000 12.000
H1   c H2   c Lenn/es 12  6 0.300E-01  2.46      0.00      0.00     0.000 12.000
H2   c H2   c Lenn/es 12  6 0.300E-01  2.50      0.00      0.00     0.000 12.000
--------------------------------------------------------------------------------

  Intramolecular Three-body potentials :

  Cosine Harmonic form:

--------------------------------------------------------------------------------
Atom    Atom    Atom           Force Constants            Theta     Cutoffs  
  1       2       3               (eV)                    (deg)  1-2  1-3  2-3
--------------------------------------------------------------------------------
C2    c C2    c C2    c                  5.4639184       120.000     Bonded
C3    c C2    c C2    c                  5.4639184       120.000     Bonded
C2    c C2    c C3    c                  5.4639184       120.000     Bonded
C3    c C2    c C7    c                  6.0710205       120.000     Bonded
C2    c H1    c C2    c                  3.0355102       120.000     Bonded
C2    c H1    c C3    c                  3.0355102       120.000     Bonded
C5    c C5    c C7    c                  5.0606292       112.700     Bonded
C5    c C5    c C5    c                  5.0606292       112.700     Bonded
C7    c C3    c C5    c                  5.4639184       114.000     Bonded
C7    c C1    c C5    c                  5.4639184       114.000     Bonded
C7    c C1    c C1    c                  3.4691546       109.500     Bonded
C5    c C4    c C5    c                  5.4639184       111.100     Bonded
C5    c H2    c C7    c                  3.2523324       110.700     Bonded
C5    c H2    c C5    c                  3.2523324       110.700     Bonded
C5    c H2    c C4    c                  3.0355102       109.500     Bonded
C6    c H2    c O2    c                  3.0355102       109.500     Bonded
C5    c H2    c H2    c                  2.8620525       107.800     Bonded
C6    c H2    c H2    c                  2.8620525       107.800     Bonded
C7    c C1    c C5    c                  5.4639184       111.100     Bonded
C7    c C1    c C3    c                  3.4691546       109.500     Bonded
C4    c C5    c O2    c                  7.0250380       111.400     Bonded
C4    c C5    c O1    c                  6.9383091       120.400     Bonded
C4    c O1    c O2    c                  7.1984957       123.400     Bonded
O2    c C4    c C6    c                  7.1984957       116.900     Bonded
C1    c C1    c C7    c                  6.0710205       120.000     Bonded
--------------------------------------------------------------------------------

  Intramolecular Four-body potentials :

  Standard form:

--------------------------------------------------------------------------------
         Atom Types             Force cst Sign Phase Phi0         Cutoffs
   1       2       3       4       (eV)                     1-2  2-3  3-4  4-1
--------------------------------------------------------------------------------
H1    c C2    c C2    c H1    c  0.3144     -   2     0.00  Bonded              
H1    c C2    c C2    c C2    c  0.3144     -   2     0.00  Bonded              
H1    c C2    c C2    c C3    c  0.3144     -   2     0.00  Bonded              
H1    c C2    c C3    c C7    c  0.3144     -   2     0.00  Bonded              
C7    c C5    c C5    c C5    c  0.2819E-01 +   1     0.00  Bonded              
C7    c C5    c C5    c C5    c  -.1084E-02 -   2     0.00  Bonded              
C7    c C5    c C5    c C5    c  0.4336E-02 +   3     0.00  Bonded              
C5    c C5    c C5    c H2    c  0.6505E-02 +   3     0.00  Bonded              
C7    c C5    c C5    c H2    c  0.6505E-02 +   3     0.00  Bonded              
H2    c C5    c C5    c H2    c  0.6505E-02 +   3     0.00  Bonded              
O1    c C4    c C5    c C5    c  -.6006E-02 +   1     0.00  Bonded              
O1    c C4    c C5    c C5    c  0.2663E-01 -   2     0.00  Bonded              
O1    c C4    c C5    c C5    c  -.1505E-01 +   3     0.00  Bonded              
O2    c C4    c C5    c C5    c  -.1199E-01 -   2     0.00  Bonded              
O2    c C4    c C5    c H2    c  0.2862E-02 -   2     0.00  Bonded              
C5    c C4    c O2    c C6    c  0.1012     +   1     0.00  Bonded              
C5    c C4    c O2    c C6    c  0.1111     -   2     0.00  Bonded              
O1    c C4    c O2    c C6    c  0.1111     -   2     0.00  Bonded              
C4    c O2    c C6    c H2    c  0.4293E-02 +   3     0.00  Bonded              
C1    c C7    c C5    c C5    c  0.2819E-01 +   1     0.00  Bonded              
C1    c C7    c C5    c C5    c  -.1084E-02 -   2     0.00  Bonded              
C1    c C7    c C5    c C5    c  0.4336E-02 +   3     0.00  Bonded              
C1    c C7    c C5    c H2    c  0.6505E-02 +   3     0.00  Bonded              
C1    c C1    c C7    c C3    c  0.3144     -   2     0.00  Bonded              
C1    c C1    c C7    c C5    c  0.3144     -   2     0.00  Bonded              
--------------------------------------------------------------------------------

  Bond-order two-body potentials :

--------------------------------------------------------------------------------
Atom  Types                 A                 B                  Cutoffs(Ang)   
  1     2                 ZetaA             ZetaB                Taper    Max   
--------------------------------------------------------------------------------
C1   c C1   c          1393.6000000000       430.0000000000     1.8000   2.1000
                          3.487900000          2.211900000    
--------------------------------------------------------------------------------

  Bond-order repulsive :

--------------------------------------------------------------------------------
Atom    Type         Alpha            N             Lambda          M           
 1/2     1/2                                                                    
--------------------------------------------------------------------------------
C1   c             0.00000000       0.72751000       2.21190000       3
C1   c
--------------------------------------------------------------------------------

  Bond-order attractive :

--------------------------------------------------------------------------------
Atom    Type         Alpha            N             Lambda          M           
 1/2     1/2           C              D                H                        
--------------------------------------------------------------------------------
C1   c  Theta       0.00000016       0.72751000       2.21190000       3
C1   c          38049.00000000       4.38400000      -0.93000000
--------------------------------------------------------------------------------

********************************************************************************
*  Output for configuration   1                                                *
********************************************************************************


  Components of energy : 

--------------------------------------------------------------------------------
  Interatomic potentials     =           1.09512567 eV
  Three-body potentials      =           7.85589367 eV
  Four-body potentials       =           2.96382269 eV
  Out of plane potentials    =           0.00000000 eV
  Bond-order potentials      =        -431.62810209 eV
  Monopole - monopole (real) =           1.80616423 eV
  Monopole - monopole (recip)=           0.00000000 eV
  Monopole - monopole (total)=           1.80616423 eV
  Wolf sum self energy       =          -1.82999609 eV
--------------------------------------------------------------------------------
  Total lattice energy       =        -419.73709191 eV
--------------------------------------------------------------------------------
  Total lattice energy       =          -40498.2131 kJ/(mole unit cells)
--------------------------------------------------------------------------------


  Number of variables =      261

  Maximum number of calculations  =         10000
  Maximum Hessian update interval =            10
  Maximum step size               =   1.000000000
  Maximum parameter tolerance     =   0.000010000
  Maximum function  tolerance     =   0.000010000
  Maximum gradient  tolerance     =   0.001000000
  Maximum gradient  component     =   0.010000000

  Symmetry not applied to optimisation

  Newton-Raphson optimiser to be used

  BFGS hessian update to be used

  Start of bulk optimisation :

  Cycle:      0 Energy:      -419.737092  Gnorm:      6.180332  CPU:    0.056
  ** Hessian calculated **
  Cycle:      1 Energy:      -422.320459  Gnorm:      3.783818  CPU:    0.140
  ** Hessian calculated **
  Cycle:      2 Energy:      -423.892730  Gnorm:      1.888032  CPU:    0.244
  ** Hessian calculated **
  Cycle:      3 Energy:      -424.166560  Gnorm:      1.006894  CPU:    0.332
  Cycle:      4 Energy:      -424.301703  Gnorm:      0.781623  CPU:    0.384
  Cycle:      5 Energy:      -424.360623  Gnorm:      0.567720  CPU:    0.432
  Cycle:      6 Energy:      -424.387607  Gnorm:      0.427665  CPU:    0.480
  Cycle:      7 Energy:      -424.401287  Gnorm:      0.284615  CPU:    0.532
  Cycle:      8 Energy:      -424.415459  Gnorm:      0.335405  CPU:    0.580
  Cycle:      9 Energy:      -424.427525  Gnorm:      0.330579  CPU:    0.632
  Cycle:     10 Energy:      -424.445350  Gnorm:      0.365405  CPU:    0.692
  Cycle:     11 Energy:      -424.458754  Gnorm:      0.357657  CPU:    0.740
  Cycle:     12 Energy:      -424.472997  Gnorm:      0.265808  CPU:    0.792
  ** Hessian calculated **
  Cycle:     13 Energy:      -424.477978  Gnorm:      0.169311  CPU:    0.880
  Cycle:     14 Energy:      -424.482116  Gnorm:      0.182189  CPU:    0.928
  Cycle:     15 Energy:      -424.487419  Gnorm:      0.168123  CPU:    0.988
  Cycle:     16 Energy:      -424.490622  Gnorm:      0.161598  CPU:    1.040
  Cycle:     17 Energy:      -424.493977  Gnorm:      0.142513  CPU:    1.104
  Cycle:     18 Energy:      -424.496576  Gnorm:      0.161165  CPU:    1.152
  Cycle:     19 Energy:      -424.500250  Gnorm:      0.150438  CPU:    1.204
  Cycle:     20 Energy:      -424.502520  Gnorm:      0.114069  CPU:    1.252
  Cycle:     21 Energy:      -424.504183  Gnorm:      0.105752  CPU:    1.304
  Cycle:     22 Energy:      -424.505873  Gnorm:      0.108896  CPU:    1.352
  ** Hessian calculated **
  Cycle:     23 Energy:      -424.506724  Gnorm:      0.069234  CPU:    1.440
  Cycle:     24 Energy:      -424.507374  Gnorm:      0.065391  CPU:    1.492
  Cycle:     25 Energy:      -424.508134  Gnorm:      0.079153  CPU:    1.540
  Cycle:     26 Energy:      -424.509083  Gnorm:      0.075416  CPU:    1.588
  Cycle:     27 Energy:      -424.510009  Gnorm:      0.088725  CPU:    1.640
  Cycle:     28 Energy:      -424.511170  Gnorm:      0.084561  CPU:    1.688
  Cycle:     29 Energy:      -424.512047  Gnorm:      0.078509  CPU:    1.740
  Cycle:     30 Energy:      -424.513017  Gnorm:      0.064037  CPU:    1.788
  Cycle:     31 Energy:      -424.513694  Gnorm:      0.059994  CPU:    1.836
  Cycle:     32 Energy:      -424.514576  Gnorm:      0.095528  CPU:    1.900
  ** Hessian calculated **
  Cycle:     33 Energy:      -424.515171  Gnorm:      0.047791  CPU:    1.988
  Cycle:     34 Energy:      -424.515570  Gnorm:      0.049092  CPU:    2.036
  Cycle:     35 Energy:      -424.516016  Gnorm:      0.053727  CPU:    2.088
  Cycle:     36 Energy:      -424.516451  Gnorm:      0.054891  CPU:    2.136
  Cycle:     37 Energy:      -424.516838  Gnorm:      0.049558  CPU:    2.184
  Cycle:     38 Energy:      -424.517148  Gnorm:      0.043529  CPU:    2.236
  Cycle:     39 Energy:      -424.517380  Gnorm:      0.038519  CPU:    2.284
  Cycle:     40 Energy:      -424.517576  Gnorm:      0.039451  CPU:    2.336
  Cycle:     41 Energy:      -424.517742  Gnorm:      0.038557  CPU:    2.384
  Cycle:     42 Energy:      -424.517944  Gnorm:      0.041034  CPU:    2.436
  ** Hessian calculated **
  Cycle:     43 Energy:      -424.518081  Gnorm:      0.031502  CPU:    2.520
  Cycle:     44 Energy:      -424.518273  Gnorm:      0.032020  CPU:    2.572
  Cycle:     45 Energy:      -424.518427  Gnorm:      0.033061  CPU:    2.620
  Cycle:     46 Energy:      -424.518599  Gnorm:      0.035613  CPU:    2.668
  Cycle:     47 Energy:      -424.518817  Gnorm:      0.042710  CPU:    2.720
  Cycle:     48 Energy:      -424.519094  Gnorm:      0.046163  CPU:    2.768
  Cycle:     49 Energy:      -424.519437  Gnorm:      0.047295  CPU:    2.816
  Cycle:     50 Energy:      -424.519722  Gnorm:      0.041581  CPU:    2.868
  Cycle:     51 Energy:      -424.519938  Gnorm:      0.034272  CPU:    2.920
  Cycle:     52 Energy:      -424.520277  Gnorm:      0.067708  CPU:    2.980
  ** Hessian calculated **
  Cycle:     53 Energy:      -424.520557  Gnorm:      0.031832  CPU:    3.068
  Cycle:     54 Energy:      -424.520742  Gnorm:      0.034830  CPU:    3.120
  Cycle:     55 Energy:      -424.520943  Gnorm:      0.038641  CPU:    3.172
  Cycle:     56 Energy:      -424.521174  Gnorm:      0.038658  CPU:    3.220
  Cycle:     57 Energy:      -424.521381  Gnorm:      0.033287  CPU:    3.268
  Cycle:     58 Energy:      -424.521511  Gnorm:      0.029729  CPU:    3.320
  Cycle:     59 Energy:      -424.521615  Gnorm:      0.027345  CPU:    3.368
  Cycle:     60 Energy:      -424.521704  Gnorm:      0.029827  CPU:    3.420
  Cycle:     61 Energy:      -424.521823  Gnorm:      0.028723  CPU:    3.468
  Cycle:     62 Energy:      -424.521939  Gnorm:      0.030022  CPU:    3.516
  ** Hessian calculated **
  Cycle:     63 Energy:      -424.522028  Gnorm:      0.025600  CPU:    3.604
  Cycle:     64 Energy:      -424.522150  Gnorm:      0.026384  CPU:    3.656
  Cycle:     65 Energy:      -424.522236  Gnorm:      0.024372  CPU:    3.704
  Cycle:     66 Energy:      -424.522329  Gnorm:      0.027667  CPU:    3.752
  Cycle:     67 Energy:      -424.522446  Gnorm:      0.032436  CPU:    3.804
  Cycle:     68 Energy:      -424.522611  Gnorm:      0.035951  CPU:    3.852
  Cycle:     69 Energy:      -424.522837  Gnorm:      0.038022  CPU:    3.904
  Cycle:     70 Energy:      -424.523029  Gnorm:      0.034128  CPU:    3.952
  Cycle:     71 Energy:      -424.523170  Gnorm:      0.027612  CPU:    4.004
  Cycle:     72 Energy:      -424.523402  Gnorm:      0.058989  CPU:    4.064
  ** Hessian calculated **
  Cycle:     73 Energy:      -424.523605  Gnorm:      0.027101  CPU:    4.152
  Cycle:     74 Energy:      -424.523731  Gnorm:      0.030515  CPU:    4.200
  Cycle:     75 Energy:      -424.523876  Gnorm:      0.033098  CPU:    4.252
  Cycle:     76 Energy:      -424.524045  Gnorm:      0.035430  CPU:    4.300
  Cycle:     77 Energy:      -424.524193  Gnorm:      0.028962  CPU:    4.348
  Cycle:     78 Energy:      -424.524285  Gnorm:      0.025395  CPU:    4.396
  Cycle:     79 Energy:      -424.524349  Gnorm:      0.021971  CPU:    4.448
  Cycle:     80 Energy:      -424.524416  Gnorm:      0.025378  CPU:    4.496
  Cycle:     81 Energy:      -424.524511  Gnorm:      0.026966  CPU:    4.548
  Cycle:     82 Energy:      -424.524604  Gnorm:      0.023084  CPU:    4.596
  ** Hessian calculated **
  Cycle:     83 Energy:      -424.524680  Gnorm:      0.025540  CPU:    4.684
  Cycle:     84 Energy:      -424.524774  Gnorm:      0.023415  CPU:    4.732
  Cycle:     85 Energy:      -424.524839  Gnorm:      0.021108  CPU:    4.784
  Cycle:     86 Energy:      -424.524905  Gnorm:      0.022865  CPU:    4.836
  Cycle:     87 Energy:      -424.524999  Gnorm:      0.027252  CPU:    4.888
  Cycle:     88 Energy:      -424.525123  Gnorm:      0.034643  CPU:    4.948
  Cycle:     89 Energy:      -424.525277  Gnorm:      0.035023  CPU:    4.996
  Cycle:     90 Energy:      -424.525410  Gnorm:      0.029151  CPU:    5.048
  Cycle:     91 Energy:      -424.525514  Gnorm:      0.024475  CPU:    5.096
  Cycle:     92 Energy:      -424.525718  Gnorm:      0.056280  CPU:    5.160
  ** Hessian calculated **
  Cycle:     93 Energy:      -424.525892  Gnorm:      0.023864  CPU:    5.244
  Cycle:     94 Energy:      -424.525985  Gnorm:      0.026704  CPU:    5.296
  Cycle:     95 Energy:      -424.526091  Gnorm:      0.031358  CPU:    5.356
  Cycle:     96 Energy:      -424.526215  Gnorm:      0.031527  CPU:    5.404
  Cycle:     97 Energy:      -424.526324  Gnorm:      0.027422  CPU:    5.456
  Cycle:     98 Energy:      -424.526401  Gnorm:      0.020821  CPU:    5.504
  Cycle:     99 Energy:      -424.526454  Gnorm:      0.019984  CPU:    5.556
  Cycle:    100 Energy:      -424.526509  Gnorm:      0.022543  CPU:    5.604
  Cycle:    101 Energy:      -424.526586  Gnorm:      0.023741  CPU:    5.656
  Cycle:    102 Energy:      -424.526651  Gnorm:      0.019573  CPU:    5.704
  ** Hessian calculated **
  Cycle:    103 Energy:      -424.526705  Gnorm:      0.022127  CPU:    5.792
  Cycle:    104 Energy:      -424.526777  Gnorm:      0.020369  CPU:    5.844
  Cycle:    105 Energy:      -424.526833  Gnorm:      0.018987  CPU:    5.892
  Cycle:    106 Energy:      -424.526885  Gnorm:      0.018692  CPU:    5.940
  Cycle:    107 Energy:      -424.526957  Gnorm:      0.023034  CPU:    5.992
  Cycle:    108 Energy:      -424.527061  Gnorm:      0.028907  CPU:    6.052
  Cycle:    109 Energy:      -424.527171  Gnorm:      0.032213  CPU:    6.100
  Cycle:    110 Energy:      -424.527277  Gnorm:      0.024412  CPU:    6.152
  Cycle:    111 Energy:      -424.527352  Gnorm:      0.021977  CPU:    6.200
  Cycle:    112 Energy:      -424.527514  Gnorm:      0.048707  CPU:    6.260
  ** Hessian calculated **
  Cycle:    113 Energy:      -424.527638  Gnorm:      0.022404  CPU:    6.348
  Cycle:    114 Energy:      -424.527706  Gnorm:      0.022641  CPU:    6.396
  Cycle:    115 Energy:      -424.527788  Gnorm:      0.027463  CPU:    6.460
  Cycle:    116 Energy:      -424.527880  Gnorm:      0.025921  CPU:    6.508
  Cycle:    117 Energy:      -424.527974  Gnorm:      0.024680  CPU:    6.556
  Cycle:    118 Energy:      -424.528034  Gnorm:      0.017244  CPU:    6.608
  Cycle:    119 Energy:      -424.528079  Gnorm:      0.018065  CPU:    6.656
  Cycle:    120 Energy:      -424.528127  Gnorm:      0.020588  CPU:    6.708
  Cycle:    121 Energy:      -424.528185  Gnorm:      0.019588  CPU:    6.756
  Cycle:    122 Energy:      -424.528233  Gnorm:      0.019423  CPU:    6.804
  ** Hessian calculated **
  Cycle:    123 Energy:      -424.528272  Gnorm:      0.017880  CPU:    6.892
  Cycle:    124 Energy:      -424.528327  Gnorm:      0.018284  CPU:    6.944
  Cycle:    125 Energy:      -424.528374  Gnorm:      0.018323  CPU:    6.996
  Cycle:    126 Energy:      -424.528419  Gnorm:      0.016606  CPU:    7.044
  Cycle:    127 Energy:      -424.528475  Gnorm:      0.021830  CPU:    7.092
  Cycle:    128 Energy:      -424.528550  Gnorm:      0.021330  CPU:    7.144
  Cycle:    129 Energy:      -424.528635  Gnorm:      0.026790  CPU:    7.192
  Cycle:    130 Energy:      -424.528722  Gnorm:      0.020984  CPU:    7.244
  Cycle:    131 Energy:      -424.528789  Gnorm:      0.019810  CPU:    7.292
  Cycle:    132 Energy:      -424.528941  Gnorm:      0.039394  CPU:    7.356
  ** Hessian calculated **
  Cycle:    133 Energy:      -424.529024  Gnorm:      0.018280  CPU:    7.440
  Cycle:    134 Energy:      -424.529088  Gnorm:      0.022458  CPU:    7.492
  Cycle:    135 Energy:      -424.529151  Gnorm:      0.021971  CPU:    7.540
  Cycle:    136 Energy:      -424.529214  Gnorm:      0.022834  CPU:    7.592
  Cycle:    137 Energy:      -424.529278  Gnorm:      0.019931  CPU:    7.640
  Cycle:    138 Energy:      -424.529339  Gnorm:      0.019472  CPU:    7.692
  Cycle:    139 Energy:      -424.529382  Gnorm:      0.016271  CPU:    7.740
  Cycle:    140 Energy:      -424.529419  Gnorm:      0.018950  CPU:    7.792
  Cycle:    141 Energy:      -424.529464  Gnorm:      0.016481  CPU:    7.840
  Cycle:    142 Energy:      -424.529511  Gnorm:      0.021743  CPU:    7.892
  ** Hessian calculated **
  Cycle:    143 Energy:      -424.529547  Gnorm:      0.014720  CPU:    7.980
  Cycle:    144 Energy:      -424.529584  Gnorm:      0.017176  CPU:    8.028
  Cycle:    145 Energy:      -424.529624  Gnorm:      0.016370  CPU:    8.080
  Cycle:    146 Energy:      -424.529667  Gnorm:      0.018573  CPU:    8.128
  Cycle:    147 Energy:      -424.529714  Gnorm:      0.017504  CPU:    8.176
  Cycle:    148 Energy:      -424.529764  Gnorm:      0.020568  CPU:    8.228
  Cycle:    149 Energy:      -424.529833  Gnorm:      0.023143  CPU:    8.276
  Cycle:    150 Energy:      -424.529904  Gnorm:      0.021541  CPU:    8.328
  Cycle:    151 Energy:      -424.529964  Gnorm:      0.017477  CPU:    8.376
  Cycle:    152 Energy:      -424.530036  Gnorm:      0.033021  CPU:    8.424
  ** Hessian calculated **
  Cycle:    153 Energy:      -424.530093  Gnorm:      0.018698  CPU:    8.512
  Cycle:    154 Energy:      -424.530143  Gnorm:      0.018580  CPU:    8.564
  Cycle:    155 Energy:      -424.530207  Gnorm:      0.022654  CPU:    8.624
  Cycle:    156 Energy:      -424.530275  Gnorm:      0.020553  CPU:    8.672
  Cycle:    157 Energy:      -424.530319  Gnorm:      0.015663  CPU:    8.724
  Cycle:    158 Energy:      -424.530363  Gnorm:      0.017313  CPU:    8.772
  Cycle:    159 Energy:      -424.530402  Gnorm:      0.015918  CPU:    8.824
  Cycle:    160 Energy:      -424.530438  Gnorm:      0.017185  CPU:    8.872
  Cycle:    161 Energy:      -424.530471  Gnorm:      0.014180  CPU:    8.920
  Cycle:    162 Energy:      -424.530503  Gnorm:      0.019039  CPU:    8.972
  ** Hessian calculated **
  Cycle:    163 Energy:      -424.530533  Gnorm:      0.013750  CPU:    9.060
  Cycle:    164 Energy:      -424.530564  Gnorm:      0.016785  CPU:    9.108
  Cycle:    165 Energy:      -424.530599  Gnorm:      0.015416  CPU:    9.156
  Cycle:    166 Energy:      -424.530635  Gnorm:      0.016648  CPU:    9.208
  Cycle:    167 Energy:      -424.530674  Gnorm:      0.016268  CPU:    9.256
  Cycle:    168 Energy:      -424.530718  Gnorm:      0.020072  CPU:    9.308
  Cycle:    169 Energy:      -424.530782  Gnorm:      0.020842  CPU:    9.356
  Cycle:    170 Energy:      -424.530841  Gnorm:      0.020950  CPU:    9.404
  Cycle:    171 Energy:      -424.530889  Gnorm:      0.014379  CPU:    9.456
  Cycle:    172 Energy:      -424.530945  Gnorm:      0.033453  CPU:    9.504
  ** Hessian calculated **
  Cycle:    173 Energy:      -424.530996  Gnorm:      0.014896  CPU:    9.592
  Cycle:    174 Energy:      -424.531038  Gnorm:      0.017662  CPU:    9.644
  Cycle:    175 Energy:      -424.531096  Gnorm:      0.018778  CPU:    9.692
  Cycle:    176 Energy:      -424.531156  Gnorm:      0.018983  CPU:    9.740
  Cycle:    177 Energy:      -424.531197  Gnorm:      0.015241  CPU:    9.792
  Cycle:    178 Energy:      -424.531234  Gnorm:      0.015887  CPU:    9.840
  Cycle:    179 Energy:      -424.531267  Gnorm:      0.015385  CPU:    9.888
  Cycle:    180 Energy:      -424.531299  Gnorm:      0.015871  CPU:    9.940
  Cycle:    181 Energy:      -424.531327  Gnorm:      0.013333  CPU:    9.992
  Cycle:    182 Energy:      -424.531353  Gnorm:      0.016532  CPU:   10.040
  ** Hessian calculated **
  Cycle:    183 Energy:      -424.531377  Gnorm:      0.012770  CPU:   10.128
  Cycle:    184 Energy:      -424.531405  Gnorm:      0.016062  CPU:   10.176
  Cycle:    185 Energy:      -424.531436  Gnorm:      0.014449  CPU:   10.228
  Cycle:    186 Energy:      -424.531469  Gnorm:      0.016939  CPU:   10.276
  Cycle:    187 Energy:      -424.531505  Gnorm:      0.015390  CPU:   10.324
  Cycle:    188 Energy:      -424.531538  Gnorm:      0.017598  CPU:   10.376
  Cycle:    189 Energy:      -424.531592  Gnorm:      0.019864  CPU:   10.424
  Cycle:    190 Energy:      -424.531642  Gnorm:      0.019772  CPU:   10.472
  Cycle:    191 Energy:      -424.531681  Gnorm:      0.014128  CPU:   10.520
  Cycle:    192 Energy:      -424.531719  Gnorm:      0.022853  CPU:   10.572
  ** Hessian calculated **
  Cycle:    193 Energy:      -424.531755  Gnorm:      0.014718  CPU:   10.656
  Cycle:    194 Energy:      -424.531797  Gnorm:      0.016997  CPU:   10.708
  Cycle:    195 Energy:      -424.531846  Gnorm:      0.021670  CPU:   10.756
  Cycle:    196 Energy:      -424.531893  Gnorm:      0.017002  CPU:   10.808
  Cycle:    197 Energy:      -424.531925  Gnorm:      0.014929  CPU:   10.856
  Cycle:    198 Energy:      -424.531958  Gnorm:      0.016435  CPU:   10.904
  Cycle:    199 Energy:      -424.531989  Gnorm:      0.015192  CPU:   10.956
  Cycle:    200 Energy:      -424.532017  Gnorm:      0.014893  CPU:   11.004
  Cycle:    201 Energy:      -424.532040  Gnorm:      0.012523  CPU:   11.052
  Cycle:    202 Energy:      -424.532064  Gnorm:      0.015791  CPU:   11.100
  ** Hessian calculated **
  Cycle:    203 Energy:      -424.532085  Gnorm:      0.012018  CPU:   11.188
  Cycle:    204 Energy:      -424.532108  Gnorm:      0.014816  CPU:   11.240
  Cycle:    205 Energy:      -424.532137  Gnorm:      0.014593  CPU:   11.288
  Cycle:    206 Energy:      -424.532163  Gnorm:      0.016645  CPU:   11.336
  Cycle:    207 Energy:      -424.532198  Gnorm:      0.016369  CPU:   11.388
  Cycle:    208 Energy:      -424.532225  Gnorm:      0.014129  CPU:   11.440
  Cycle:    209 Energy:      -424.532274  Gnorm:      0.022349  CPU:   11.500
  Cycle:    210 Energy:      -424.532322  Gnorm:      0.016470  CPU:   11.548
  Cycle:    211 Energy:      -424.532358  Gnorm:      0.015209  CPU:   11.600
  Cycle:    212 Energy:      -424.532397  Gnorm:      0.021945  CPU:   11.648
  ** Hessian calculated **
  Cycle:    213 Energy:      -424.532563  Gnorm:      0.021911  CPU:   11.784
  Cycle:    214 Energy:      -424.532825  Gnorm:      0.021905  CPU:   11.872
  Cycle:    215 Energy:      -424.533184  Gnorm:      0.021995  CPU:   11.956
  Cycle:    216 Energy:      -424.533403  Gnorm:      0.022186  CPU:   12.032
  ** Hessian calculated **
  Cycle:    217 Energy:      -424.533441  Gnorm:      0.015170  CPU:   12.120
  Cycle:    218 Energy:      -424.533476  Gnorm:      0.015643  CPU:   12.168
  Cycle:    219 Energy:      -424.533517  Gnorm:      0.019625  CPU:   12.220
  Cycle:    220 Energy:      -424.533562  Gnorm:      0.013334  CPU:   12.268
  Cycle:    221 Energy:      -424.533586  Gnorm:      0.015520  CPU:   12.320
  Cycle:    222 Energy:      -424.533619  Gnorm:      0.015941  CPU:   12.368
  Cycle:    223 Energy:      -424.533644  Gnorm:      0.014629  CPU:   12.420
  Cycle:    224 Energy:      -424.533670  Gnorm:      0.013948  CPU:   12.468
  Cycle:    225 Energy:      -424.533691  Gnorm:      0.011607  CPU:   12.520
  Cycle:    226 Energy:      -424.533710  Gnorm:      0.013701  CPU:   12.568
  ** Hessian calculated **
  Cycle:    227 Energy:      -424.533728  Gnorm:      0.011204  CPU:   12.656
  Cycle:    228 Energy:      -424.533749  Gnorm:      0.013856  CPU:   12.708
  Cycle:    229 Energy:      -424.533775  Gnorm:      0.013983  CPU:   12.756
  Cycle:    230 Energy:      -424.533802  Gnorm:      0.016376  CPU:   12.808
  Cycle:    231 Energy:      -424.533833  Gnorm:      0.014729  CPU:   12.856
  Cycle:    232 Energy:      -424.533857  Gnorm:      0.014095  CPU:   12.908
  Cycle:    233 Energy:      -424.533901  Gnorm:      0.019165  CPU:   12.968
  Cycle:    234 Energy:      -424.533938  Gnorm:      0.015696  CPU:   13.020
  Cycle:    235 Energy:      -424.533972  Gnorm:      0.014232  CPU:   13.068
  Cycle:    236 Energy:      -424.534007  Gnorm:      0.021803  CPU:   13.120
  ** Hessian calculated **
  Cycle:    237 Energy:      -424.534041  Gnorm:      0.014289  CPU:   13.208
  Cycle:    238 Energy:      -424.534073  Gnorm:      0.014963  CPU:   13.256
  Cycle:    239 Energy:      -424.534110  Gnorm:      0.018569  CPU:   13.304
  Cycle:    240 Energy:      -424.534152  Gnorm:      0.013473  CPU:   13.356
  Cycle:    241 Energy:      -424.534176  Gnorm:      0.014684  CPU:   13.404
  Cycle:    242 Energy:      -424.534205  Gnorm:      0.015599  CPU:   13.452
  Cycle:    243 Energy:      -424.534229  Gnorm:      0.013746  CPU:   13.504
  Cycle:    244 Energy:      -424.534252  Gnorm:      0.013429  CPU:   13.556
  Cycle:    245 Energy:      -424.534273  Gnorm:      0.011331  CPU:   13.608
  Cycle:    246 Energy:      -424.534290  Gnorm:      0.012649  CPU:   13.656
  ** Hessian calculated **
  Cycle:    247 Energy:      -424.534307  Gnorm:      0.012648  CPU:   13.744
  Cycle:    248 Energy:      -424.534398  Gnorm:      0.012671  CPU:   13.840
  Cycle:    249 Energy:      -424.534562  Gnorm:      0.012783  CPU:   13.928
  Cycle:    250 Energy:      -424.534853  Gnorm:      0.013199  CPU:   14.012
  Cycle:    251 Energy:      -424.535037  Gnorm:      0.013550  CPU:   14.084
  ** Hessian calculated **
  Cycle:    252 Energy:      -424.535054  Gnorm:      0.010810  CPU:   14.172
  Cycle:    253 Energy:      -424.535073  Gnorm:      0.013375  CPU:   14.220
  Cycle:    254 Energy:      -424.535097  Gnorm:      0.013976  CPU:   14.272
  Cycle:    255 Energy:      -424.535120  Gnorm:      0.013806  CPU:   14.320
  Cycle:    256 Energy:      -424.535148  Gnorm:      0.014472  CPU:   14.372
  Cycle:    257 Energy:      -424.535173  Gnorm:      0.013560  CPU:   14.420
  Cycle:    258 Energy:      -424.535211  Gnorm:      0.015007  CPU:   14.472
  Cycle:    259 Energy:      -424.535244  Gnorm:      0.014255  CPU:   14.520
  Cycle:    260 Energy:      -424.535275  Gnorm:      0.013354  CPU:   14.568
  Cycle:    261 Energy:      -424.535316  Gnorm:      0.023821  CPU:   14.620
  ** Hessian calculated **
  Cycle:    262 Energy:      -424.535358  Gnorm:      0.023806  CPU:   14.704
  Cycle:    263 Energy:      -424.535589  Gnorm:      0.023703  CPU:   14.804
  Cycle:    264 Energy:      -424.535994  Gnorm:      0.023523  CPU:   14.888
  Cycle:    265 Energy:      -424.536672  Gnorm:      0.023773  CPU:   14.976
  Cycle:    266 Energy:      -424.536928  Gnorm:      0.024363  CPU:   15.048
  ** Hessian calculated **
  Cycle:    267 Energy:      -424.536966  Gnorm:      0.013969  CPU:   15.136
  Cycle:    268 Energy:      -424.536996  Gnorm:      0.013156  CPU:   15.184
  Cycle:    269 Energy:      -424.537024  Gnorm:      0.015201  CPU:   15.232
  Cycle:    270 Energy:      -424.537056  Gnorm:      0.012689  CPU:   15.284
  Cycle:    271 Energy:      -424.537076  Gnorm:      0.013113  CPU:   15.332
  Cycle:    272 Energy:      -424.537106  Gnorm:      0.012456  CPU:   15.384
  Cycle:    273 Energy:      -424.537131  Gnorm:      0.014174  CPU:   15.432
  Cycle:    274 Energy:      -424.537154  Gnorm:      0.012465  CPU:   15.480
  Cycle:    275 Energy:      -424.537171  Gnorm:      0.010121  CPU:   15.532
  Cycle:    276 Energy:      -424.537188  Gnorm:      0.014619  CPU:   15.580
  ** Hessian calculated **
  Cycle:    277 Energy:      -424.537203  Gnorm:      0.009561  CPU:   15.668
  Cycle:    278 Energy:      -424.537220  Gnorm:      0.010732  CPU:   15.720
  Cycle:    279 Energy:      -424.537240  Gnorm:      0.011575  CPU:   15.768
  Cycle:    280 Energy:      -424.537264  Gnorm:      0.012961  CPU:   15.820
  Cycle:    281 Energy:      -424.537293  Gnorm:      0.013280  CPU:   15.868
  Cycle:    282 Energy:      -424.537316  Gnorm:      0.013341  CPU:   15.920
  Cycle:    283 Energy:      -424.537344  Gnorm:      0.014487  CPU:   15.968
  Cycle:    284 Energy:      -424.537374  Gnorm:      0.015673  CPU:   16.020
  Cycle:    285 Energy:      -424.537404  Gnorm:      0.012032  CPU:   16.068
  Cycle:    286 Energy:      -424.537457  Gnorm:      0.029237  CPU:   16.132
  ** Hessian calculated **
  Cycle:    287 Energy:      -424.537500  Gnorm:      0.012783  CPU:   16.232
  Cycle:    288 Energy:      -424.537528  Gnorm:      0.015807  CPU:   16.284
  Cycle:    289 Energy:      -424.537559  Gnorm:      0.013699  CPU:   16.340
  Cycle:    290 Energy:      -424.537592  Gnorm:      0.015692  CPU:   16.388
  Cycle:    291 Energy:      -424.537620  Gnorm:      0.014092  CPU:   16.440
  Cycle:    292 Energy:      -424.537643  Gnorm:      0.011887  CPU:   16.488
  Cycle:    293 Energy:      -424.537663  Gnorm:      0.011747  CPU:   16.540
  Cycle:    294 Energy:      -424.537686  Gnorm:      0.011340  CPU:   16.588
  Cycle:    295 Energy:      -424.537700  Gnorm:      0.009553  CPU:   16.640
  Cycle:    296 Energy:      -424.537715  Gnorm:      0.013075  CPU:   16.688
  ** Hessian calculated **
  Cycle:    297 Energy:      -424.537729  Gnorm:      0.009507  CPU:   16.780
  Cycle:    298 Energy:      -424.537744  Gnorm:      0.011815  CPU:   16.828
  Cycle:    299 Energy:      -424.537765  Gnorm:      0.009477  CPU:   16.880
  Cycle:    300 Energy:      -424.537787  Gnorm:      0.012161  CPU:   16.928
  Cycle:    301 Energy:      -424.537807  Gnorm:      0.012718  CPU:   16.980
  Cycle:    302 Energy:      -424.537834  Gnorm:      0.015580  CPU:   17.028
  Cycle:    303 Energy:      -424.537866  Gnorm:      0.013614  CPU:   17.080
  Cycle:    304 Energy:      -424.537897  Gnorm:      0.015918  CPU:   17.128
  Cycle:    305 Energy:      -424.537922  Gnorm:      0.011324  CPU:   17.180
  Cycle:    306 Energy:      -424.537961  Gnorm:      0.027867  CPU:   17.240
  ** Hessian calculated **
  Cycle:    307 Energy:      -424.537998  Gnorm:      0.011154  CPU:   17.328
  Cycle:    308 Energy:      -424.538022  Gnorm:      0.015060  CPU:   17.376
  Cycle:    309 Energy:      -424.538053  Gnorm:      0.012743  CPU:   17.428
  Cycle:    310 Energy:      -424.538085  Gnorm:      0.016380  CPU:   17.476
  Cycle:    311 Energy:      -424.538117  Gnorm:      0.012963  CPU:   17.528
  Cycle:    312 Energy:      -424.538136  Gnorm:      0.010647  CPU:   17.576
  Cycle:    313 Energy:      -424.538153  Gnorm:      0.011476  CPU:   17.624
  Cycle:    314 Energy:      -424.538173  Gnorm:      0.011927  CPU:   17.680
  Cycle:    315 Energy:      -424.538189  Gnorm:      0.010007  CPU:   17.732
  Cycle:    316 Energy:      -424.538203  Gnorm:      0.012665  CPU:   17.784
  ** Hessian calculated **
  Cycle:    317 Energy:      -424.538216  Gnorm:      0.009375  CPU:   17.872
  Cycle:    318 Energy:      -424.538232  Gnorm:      0.011009  CPU:   17.920
  Cycle:    319 Energy:      -424.538251  Gnorm:      0.011681  CPU:   17.968
  Cycle:    320 Energy:      -424.538271  Gnorm:      0.011276  CPU:   18.020
  Cycle:    321 Energy:      -424.538289  Gnorm:      0.013547  CPU:   18.068
  Cycle:    322 Energy:      -424.538317  Gnorm:      0.013409  CPU:   18.116
  Cycle:    323 Energy:      -424.538349  Gnorm:      0.015455  CPU:   18.168
  Cycle:    324 Energy:      -424.538377  Gnorm:      0.013211  CPU:   18.216
  Cycle:    325 Energy:      -424.538399  Gnorm:      0.011746  CPU:   18.268
  Cycle:    326 Energy:      -424.538430  Gnorm:      0.020153  CPU:   18.316
  ** Hessian calculated **
  Cycle:    327 Energy:      -424.538557  Gnorm:      0.020117  CPU:   18.452
  Cycle:    328 Energy:      -424.538770  Gnorm:      0.020086  CPU:   18.540
  Cycle:    329 Energy:      -424.539099  Gnorm:      0.020088  CPU:   18.624
  Cycle:    330 Energy:      -424.539266  Gnorm:      0.020275  CPU:   18.700
  Cycle:    331 Energy:      -424.539405  Gnorm:      0.020734  CPU:   18.784
  ** Hessian calculated **
  Cycle:    332 Energy:      -424.539433  Gnorm:      0.011816  CPU:   18.872
  Cycle:    333 Energy:      -424.539455  Gnorm:      0.012411  CPU:   18.924
  Cycle:    334 Energy:      -424.539476  Gnorm:      0.013611  CPU:   18.972
  Cycle:    335 Energy:      -424.539503  Gnorm:      0.012898  CPU:   19.020
  Cycle:    336 Energy:      -424.539530  Gnorm:      0.012820  CPU:   19.072
  Cycle:    337 Energy:      -424.539548  Gnorm:      0.011789  CPU:   19.120
  Cycle:    338 Energy:      -424.539569  Gnorm:      0.011573  CPU:   19.172
  Cycle:    339 Energy:      -424.539587  Gnorm:      0.012035  CPU:   19.220
  Cycle:    340 Energy:      -424.539603  Gnorm:      0.008999  CPU:   19.272
  Cycle:    341 Energy:      -424.539616  Gnorm:      0.011948  CPU:   19.320
  ** Hessian calculated **
  Cycle:    342 Energy:      -424.539627  Gnorm:      0.008542  CPU:   19.408
  Cycle:    343 Energy:      -424.539642  Gnorm:      0.010619  CPU:   19.460
  Cycle:    344 Energy:      -424.539661  Gnorm:      0.010335  CPU:   19.508
  Cycle:    345 Energy:      -424.539681  Gnorm:      0.011523  CPU:   19.556
  Cycle:    346 Energy:      -424.539699  Gnorm:      0.012699  CPU:   19.608
  Cycle:    347 Energy:      -424.539725  Gnorm:      0.013075  CPU:   19.656
  Cycle:    348 Energy:      -424.539750  Gnorm:      0.014098  CPU:   19.708
  Cycle:    349 Energy:      -424.539773  Gnorm:      0.012445  CPU:   19.756
  Cycle:    350 Energy:      -424.539794  Gnorm:      0.011930  CPU:   19.808
  Cycle:    351 Energy:      -424.539819  Gnorm:      0.019355  CPU:   19.856
  ** Hessian calculated **
  Cycle:    352 Energy:      -424.539842  Gnorm:      0.011459  CPU:   19.944
  Cycle:    353 Energy:      -424.539864  Gnorm:      0.012572  CPU:   19.996
  Cycle:    354 Energy:      -424.539886  Gnorm:      0.013671  CPU:   20.044
  Cycle:    355 Energy:      -424.539913  Gnorm:      0.014223  CPU:   20.096
  Cycle:    356 Energy:      -424.539942  Gnorm:      0.013178  CPU:   20.144
  Cycle:    357 Energy:      -424.539959  Gnorm:      0.010346  CPU:   20.192
  Cycle:    358 Energy:      -424.539976  Gnorm:      0.011541  CPU:   20.244
  Cycle:    359 Energy:      -424.539994  Gnorm:      0.011234  CPU:   20.292
  Cycle:    360 Energy:      -424.540009  Gnorm:      0.009080  CPU:   20.344
  Cycle:    361 Energy:      -424.540021  Gnorm:      0.011616  CPU:   20.392
  ** Hessian calculated **
  Cycle:    362 Energy:      -424.540033  Gnorm:      0.009036  CPU:   20.480
  Cycle:    363 Energy:      -424.540048  Gnorm:      0.010975  CPU:   20.532
  Cycle:    364 Energy:      -424.540066  Gnorm:      0.011293  CPU:   20.584
  Cycle:    365 Energy:      -424.540082  Gnorm:      0.010328  CPU:   20.632
  Cycle:    366 Energy:      -424.540099  Gnorm:      0.013017  CPU:   20.684
  Cycle:    367 Energy:      -424.540127  Gnorm:      0.012143  CPU:   20.732
  Cycle:    368 Energy:      -424.540154  Gnorm:      0.014125  CPU:   20.780
  Cycle:    369 Energy:      -424.540176  Gnorm:      0.011784  CPU:   20.832
  Cycle:    370 Energy:      -424.540197  Gnorm:      0.011433  CPU:   20.880
  Cycle:    371 Energy:      -424.540220  Gnorm:      0.018632  CPU:   20.928
  ** Hessian calculated **
  Cycle:    372 Energy:      -424.540242  Gnorm:      0.011246  CPU:   21.016
  Cycle:    373 Energy:      -424.540263  Gnorm:      0.011176  CPU:   21.068
  Cycle:    374 Energy:      -424.540281  Gnorm:      0.013150  CPU:   21.116
  Cycle:    375 Energy:      -424.540308  Gnorm:      0.013560  CPU:   21.168
  Cycle:    376 Energy:      -424.540337  Gnorm:      0.012987  CPU:   21.216
  Cycle:    377 Energy:      -424.540353  Gnorm:      0.009904  CPU:   21.268
  Cycle:    378 Energy:      -424.540369  Gnorm:      0.011427  CPU:   21.320
  Cycle:    379 Energy:      -424.540387  Gnorm:      0.011879  CPU:   21.368
  Cycle:    380 Energy:      -424.540402  Gnorm:      0.009170  CPU:   21.420
  Cycle:    381 Energy:      -424.540415  Gnorm:      0.011798  CPU:   21.468
  ** Hessian calculated **
  Cycle:    382 Energy:      -424.540428  Gnorm:      0.009241  CPU:   21.556
  Cycle:    383 Energy:      -424.540443  Gnorm:      0.011535  CPU:   21.608
  Cycle:    384 Energy:      -424.540461  Gnorm:      0.011346  CPU:   21.656
  Cycle:    385 Energy:      -424.540476  Gnorm:      0.010056  CPU:   21.708
  Cycle:    386 Energy:      -424.540493  Gnorm:      0.012998  CPU:   21.756
  Cycle:    387 Energy:      -424.540519  Gnorm:      0.012222  CPU:   21.808
  Cycle:    388 Energy:      -424.540546  Gnorm:      0.013746  CPU:   21.856
  Cycle:    389 Energy:      -424.540564  Gnorm:      0.011155  CPU:   21.908
  Cycle:    390 Energy:      -424.540585  Gnorm:      0.010834  CPU:   21.960
  Cycle:    391 Energy:      -424.540605  Gnorm:      0.017464  CPU:   22.008
  ** Hessian calculated **
  Cycle:    392 Energy:      -424.540624  Gnorm:      0.010678  CPU:   22.096
  Cycle:    393 Energy:      -424.540644  Gnorm:      0.010292  CPU:   22.148
  Cycle:    394 Energy:      -424.540661  Gnorm:      0.013134  CPU:   22.200
  Cycle:    395 Energy:      -424.540687  Gnorm:      0.013392  CPU:   22.252
  Cycle:    396 Energy:      -424.540715  Gnorm:      0.012868  CPU:   22.300
  Cycle:    397 Energy:      -424.540730  Gnorm:      0.009681  CPU:   22.352
  Cycle:    398 Energy:      -424.540745  Gnorm:      0.011491  CPU:   22.400
  Cycle:    399 Energy:      -424.540763  Gnorm:      0.012325  CPU:   22.452
  Cycle:    400 Energy:      -424.540779  Gnorm:      0.009125  CPU:   22.500
  Cycle:    401 Energy:      -424.540792  Gnorm:      0.012376  CPU:   22.548
  ** Hessian calculated **
  Cycle:    402 Energy:      -424.540805  Gnorm:      0.009212  CPU:   22.640
  Cycle:    403 Energy:      -424.540820  Gnorm:      0.011563  CPU:   22.688
  Cycle:    404 Energy:      -424.540838  Gnorm:      0.010929  CPU:   22.736
  Cycle:    405 Energy:      -424.540853  Gnorm:      0.009925  CPU:   22.788
  Cycle:    406 Energy:      -424.540870  Gnorm:      0.012756  CPU:   22.836
  Cycle:    407 Energy:      -424.540894  Gnorm:      0.012747  CPU:   22.888
  Cycle:    408 Energy:      -424.540920  Gnorm:      0.013579  CPU:   22.936
  Cycle:    409 Energy:      -424.540938  Gnorm:      0.010901  CPU:   22.984
  Cycle:    410 Energy:      -424.540957  Gnorm:      0.010280  CPU:   23.036
  Cycle:    411 Energy:      -424.540975  Gnorm:      0.016868  CPU:   23.088
  ** Hessian calculated **
  Cycle:    412 Energy:      -424.540992  Gnorm:      0.010119  CPU:   23.176
  Cycle:    413 Energy:      -424.541011  Gnorm:      0.009759  CPU:   23.224
  Cycle:    414 Energy:      -424.541028  Gnorm:      0.013225  CPU:   23.272
  Cycle:    415 Energy:      -424.541054  Gnorm:      0.013356  CPU:   23.324
  Cycle:    416 Energy:      -424.541080  Gnorm:      0.012856  CPU:   23.372
  Cycle:    417 Energy:      -424.541096  Gnorm:      0.009382  CPU:   23.424
  Cycle:    418 Energy:      -424.541109  Gnorm:      0.011338  CPU:   23.480
  Cycle:    419 Energy:      -424.541128  Gnorm:      0.012453  CPU:   23.528
  Cycle:    420 Energy:      -424.541143  Gnorm:      0.009235  CPU:   23.576
  Cycle:    421 Energy:      -424.541157  Gnorm:      0.012731  CPU:   23.628
  ** Hessian calculated **
  Cycle:    422 Energy:      -424.541171  Gnorm:      0.009277  CPU:   23.716
  Cycle:    423 Energy:      -424.541186  Gnorm:      0.011627  CPU:   23.768
  Cycle:    424 Energy:      -424.541204  Gnorm:      0.010893  CPU:   23.816
  Cycle:    425 Energy:      -424.541218  Gnorm:      0.009652  CPU:   23.868
  Cycle:    426 Energy:      -424.541235  Gnorm:      0.012714  CPU:   23.916
  Cycle:    427 Energy:      -424.541258  Gnorm:      0.013169  CPU:   23.968
  Cycle:    428 Energy:      -424.541284  Gnorm:      0.013572  CPU:   24.016
  Cycle:    429 Energy:      -424.541302  Gnorm:      0.010727  CPU:   24.064
  Cycle:    430 Energy:      -424.541320  Gnorm:      0.009829  CPU:   24.116
  Cycle:    431 Energy:      -424.541337  Gnorm:      0.017219  CPU:   24.168
  ** Hessian calculated **
  Cycle:    432 Energy:      -424.541354  Gnorm:      0.009693  CPU:   24.256
  Cycle:    433 Energy:      -424.541371  Gnorm:      0.009392  CPU:   24.308
  Cycle:    434 Energy:      -424.541388  Gnorm:      0.012679  CPU:   24.356
  Cycle:    435 Energy:      -424.541414  Gnorm:      0.012428  CPU:   24.408
  Cycle:    436 Energy:      -424.541439  Gnorm:      0.012670  CPU:   24.456
  Cycle:    437 Energy:      -424.541455  Gnorm:      0.009219  CPU:   24.508
  Cycle:    438 Energy:      -424.541468  Gnorm:      0.011052  CPU:   24.560
  Cycle:    439 Energy:      -424.541486  Gnorm:      0.012339  CPU:   24.608
  Cycle:    440 Energy:      -424.541502  Gnorm:      0.009362  CPU:   24.660
  Cycle:    441 Energy:      -424.541516  Gnorm:      0.012645  CPU:   24.708
  ** Hessian calculated **
  Cycle:    442 Energy:      -424.541529  Gnorm:      0.009291  CPU:   24.796
  Cycle:    443 Energy:      -424.541545  Gnorm:      0.011405  CPU:   24.848
  Cycle:    444 Energy:      -424.541563  Gnorm:      0.010840  CPU:   24.896
  Cycle:    445 Energy:      -424.541576  Gnorm:      0.009799  CPU:   24.944
  Cycle:    446 Energy:      -424.541594  Gnorm:      0.012626  CPU:   24.996
  Cycle:    447 Energy:      -424.541615  Gnorm:      0.012690  CPU:   25.044
  Cycle:    448 Energy:      -424.541641  Gnorm:      0.013617  CPU:   25.096
  Cycle:    449 Energy:      -424.541659  Gnorm:      0.010331  CPU:   25.144
  Cycle:    450 Energy:      -424.541676  Gnorm:      0.009483  CPU:   25.196
  Cycle:    451 Energy:      -424.541693  Gnorm:      0.018681  CPU:   25.244
  ** Hessian calculated **
  Cycle:    452 Energy:      -424.541711  Gnorm:      0.009330  CPU:   25.332
  Cycle:    453 Energy:      -424.541727  Gnorm:      0.009003  CPU:   25.384
  Cycle:    454 Energy:      -424.541744  Gnorm:      0.011282  CPU:   25.432
  Cycle:    455 Energy:      -424.541768  Gnorm:      0.010508  CPU:   25.484
  Cycle:    456 Energy:      -424.541792  Gnorm:      0.011902  CPU:   25.532
  Cycle:    457 Energy:      -424.541808  Gnorm:      0.009453  CPU:   25.584
  Cycle:    458 Energy:      -424.541822  Gnorm:      0.011071  CPU:   25.636
  Cycle:    459 Energy:      -424.541838  Gnorm:      0.011809  CPU:   25.684
  Cycle:    460 Energy:      -424.541854  Gnorm:      0.010221  CPU:   25.736
  Cycle:    461 Energy:      -424.541870  Gnorm:      0.012329  CPU:   25.788
  ** Hessian calculated **
  Cycle:    462 Energy:      -424.541882  Gnorm:      0.009292  CPU:   25.876
  Cycle:    463 Energy:      -424.541899  Gnorm:      0.010875  CPU:   25.924
  Cycle:    464 Energy:      -424.541917  Gnorm:      0.010400  CPU:   25.976
  Cycle:    465 Energy:      -424.541930  Gnorm:      0.010385  CPU:   26.024
  Cycle:    466 Energy:      -424.541948  Gnorm:      0.012566  CPU:   26.076
  Cycle:    467 Energy:      -424.541968  Gnorm:      0.011719  CPU:   26.124
  Cycle:    468 Energy:      -424.541995  Gnorm:      0.011809  CPU:   26.176
  Cycle:    469 Energy:      -424.542012  Gnorm:      0.009152  CPU:   26.224
  Cycle:    470 Energy:      -424.542025  Gnorm:      0.009963  CPU:   26.276
  Cycle:    471 Energy:      -424.542045  Gnorm:      0.019154  CPU:   26.324
  ** Hessian calculated **
  Cycle:    472 Energy:      -424.542064  Gnorm:      0.009427  CPU:   26.412
  Cycle:    473 Energy:      -424.542079  Gnorm:      0.009726  CPU:   26.464
  Cycle:    474 Energy:      -424.542096  Gnorm:      0.012501  CPU:   26.512
  Cycle:    475 Energy:      -424.542121  Gnorm:      0.010989  CPU:   26.564
  Cycle:    476 Energy:      -424.542146  Gnorm:      0.012070  CPU:   26.612
  Cycle:    477 Energy:      -424.542161  Gnorm:      0.009420  CPU:   26.664
  Cycle:    478 Energy:      -424.542175  Gnorm:      0.010314  CPU:   26.712
  Cycle:    479 Energy:      -424.542189  Gnorm:      0.011916  CPU:   26.764
  Cycle:    480 Energy:      -424.542206  Gnorm:      0.009919  CPU:   26.816
  Cycle:    481 Energy:      -424.542220  Gnorm:      0.011760  CPU:   26.864
  ** Hessian calculated **
  Cycle:    482 Energy:      -424.542233  Gnorm:      0.009373  CPU:   26.952
  Cycle:    483 Energy:      -424.542249  Gnorm:      0.010861  CPU:   27.000
  Cycle:    484 Energy:      -424.542264  Gnorm:      0.009955  CPU:   27.048
  Cycle:    485 Energy:      -424.542278  Gnorm:      0.010058  CPU:   27.100
  Cycle:    486 Energy:      -424.542294  Gnorm:      0.012379  CPU:   27.148
  Cycle:    487 Energy:      -424.542315  Gnorm:      0.012545  CPU:   27.196
  Cycle:    488 Energy:      -424.542344  Gnorm:      0.012139  CPU:   27.248
  Cycle:    489 Energy:      -424.542360  Gnorm:      0.009975  CPU:   27.296
  Cycle:    490 Energy:      -424.542374  Gnorm:      0.009502  CPU:   27.348
  Cycle:    491 Energy:      -424.542394  Gnorm:      0.019423  CPU:   27.396
  ** Hessian calculated **
  Cycle:    492 Energy:      -424.542414  Gnorm:      0.009187  CPU:   27.484
  Cycle:    493 Energy:      -424.542429  Gnorm:      0.009760  CPU:   27.532
  Cycle:    494 Energy:      -424.542445  Gnorm:      0.012021  CPU:   27.584
  Cycle:    495 Energy:      -424.542471  Gnorm:      0.010738  CPU:   27.632
  Cycle:    496 Energy:      -424.542497  Gnorm:      0.011137  CPU:   27.684
  Cycle:    497 Energy:      -424.542511  Gnorm:      0.009056  CPU:   27.732
  Cycle:    498 Energy:      -424.542525  Gnorm:      0.009755  CPU:   27.780
  Cycle:    499 Energy:      -424.542538  Gnorm:      0.011667  CPU:   27.832
  Cycle:    500 Energy:      -424.542555  Gnorm:      0.010187  CPU:   27.884
  Cycle:    501 Energy:      -424.542569  Gnorm:      0.011315  CPU:   27.936
  ** Hessian calculated **
  Cycle:    502 Energy:      -424.542581  Gnorm:      0.009373  CPU:   28.024
  Cycle:    503 Energy:      -424.542598  Gnorm:      0.010835  CPU:   28.072
  Cycle:    504 Energy:      -424.542611  Gnorm:      0.008972  CPU:   28.124
  Cycle:    505 Energy:      -424.542623  Gnorm:      0.009946  CPU:   28.176
  Cycle:    506 Energy:      -424.542639  Gnorm:      0.012036  CPU:   28.224
  Cycle:    507 Energy:      -424.542659  Gnorm:      0.013061  CPU:   28.272
  Cycle:    508 Energy:      -424.542691  Gnorm:      0.013158  CPU:   28.324
  Cycle:    509 Energy:      -424.542711  Gnorm:      0.009632  CPU:   28.372
  Cycle:    510 Energy:      -424.542723  Gnorm:      0.010510  CPU:   28.424
  Cycle:    511 Energy:      -424.542746  Gnorm:      0.017137  CPU:   28.472
  ** Hessian calculated **
  Cycle:    512 Energy:      -424.542764  Gnorm:      0.009872  CPU:   28.560
  Cycle:    513 Energy:      -424.542780  Gnorm:      0.011636  CPU:   28.612
  Cycle:    514 Energy:      -424.542801  Gnorm:      0.013804  CPU:   28.660
  Cycle:    515 Energy:      -424.542830  Gnorm:      0.012803  CPU:   28.708
  Cycle:    516 Energy:      -424.542856  Gnorm:      0.012310  CPU:   28.760
  Cycle:    517 Energy:      -424.542871  Gnorm:      0.008367  CPU:   28.808
  Cycle:    518 Energy:      -424.542881  Gnorm:      0.008535  CPU:   28.856
  Cycle:    519 Energy:      -424.542893  Gnorm:      0.010705  CPU:   28.908
  Cycle:    520 Energy:      -424.542911  Gnorm:      0.007895  CPU:   28.956
  Cycle:    521 Energy:      -424.542927  Gnorm:      0.011795  CPU:   29.004
  ** Hessian calculated **
  Cycle:    522 Energy:      -424.542938  Gnorm:      0.009686  CPU:   29.092
  Cycle:    523 Energy:      -424.542957  Gnorm:      0.009674  CPU:   29.148
  Cycle:    524 Energy:      -424.542971  Gnorm:      0.008110  CPU:   29.196
  Cycle:    525 Energy:      -424.542981  Gnorm:      0.008550  CPU:   29.244
  Cycle:    526 Energy:      -424.542996  Gnorm:      0.011091  CPU:   29.296
  Cycle:    527 Energy:      -424.543022  Gnorm:      0.014687  CPU:   29.356
  Cycle:    528 Energy:      -424.543056  Gnorm:      0.013509  CPU:   29.408
  Cycle:    529 Energy:      -424.543076  Gnorm:      0.010491  CPU:   29.456
  Cycle:    530 Energy:      -424.543091  Gnorm:      0.010242  CPU:   29.516
  Cycle:    531 Energy:      -424.543140  Gnorm:      0.026341  CPU:   29.588
  ** Hessian calculated **
  Cycle:    532 Energy:      -424.543175  Gnorm:      0.009982  CPU:   29.676
  Cycle:    533 Energy:      -424.543189  Gnorm:      0.010279  CPU:   29.728
  Cycle:    534 Energy:      -424.543207  Gnorm:      0.010342  CPU:   29.780
  Cycle:    535 Energy:      -424.543237  Gnorm:      0.015189  CPU:   29.848
  Cycle:    536 Energy:      -424.543261  Gnorm:      0.014578  CPU:   29.900
  Cycle:    537 Energy:      -424.543280  Gnorm:      0.008927  CPU:   29.948
  Cycle:    538 Energy:      -424.543290  Gnorm:      0.008229  CPU:   29.996
  Cycle:    539 Energy:      -424.543300  Gnorm:      0.011033  CPU:   30.048
  Cycle:    540 Energy:      -424.543318  Gnorm:      0.008567  CPU:   30.100
  Cycle:    541 Energy:      -424.543335  Gnorm:      0.008013  CPU:   30.152
  ** Hessian calculated **
  Cycle:    542 Energy:      -424.543355  Gnorm:      0.008012  CPU:   30.240
  Cycle:    543 Energy:      -424.543462  Gnorm:      0.008031  CPU:   30.344
  Cycle:    544 Energy:      -424.543642  Gnorm:      0.008197  CPU:   30.432
  Cycle:    545 Energy:      -424.543808  Gnorm:      0.008594  CPU:   30.520
  Cycle:    546 Energy:      -424.543848  Gnorm:      0.009114  CPU:   30.584
  ** Hessian calculated **
  Cycle:    547 Energy:      -424.544333  Gnorm:      0.009772  CPU:   30.724
  Cycle:    548 Energy:      -424.545683  Gnorm:      0.020570  CPU:   30.800
  Cycle:    549 Energy:      -424.546321  Gnorm:      0.026288  CPU:   30.884
  Cycle:    550 Energy:      -424.547249  Gnorm:      0.048751  CPU:   30.956
  Cycle:    551 Energy:      -424.548225  Gnorm:      0.092781  CPU:   31.008
  ** Hessian calculated **
  Cycle:    552 Energy:      -424.548924  Gnorm:      0.056625  CPU:   31.096
  Cycle:    553 Energy:      -424.549178  Gnorm:      0.034175  CPU:   31.148
  Cycle:    554 Energy:      -424.549344  Gnorm:      0.028626  CPU:   31.200
  Cycle:    555 Energy:      -424.549437  Gnorm:      0.018152  CPU:   31.252
  Cycle:    556 Energy:      -424.549488  Gnorm:      0.015412  CPU:   31.308
  Cycle:    557 Energy:      -424.549515  Gnorm:      0.012035  CPU:   31.360
  Cycle:    558 Energy:      -424.549535  Gnorm:      0.010376  CPU:   31.412
  Cycle:    559 Energy:      -424.549549  Gnorm:      0.010388  CPU:   31.460
  Cycle:    560 Energy:      -424.549563  Gnorm:      0.009324  CPU:   31.512
  Cycle:    561 Energy:      -424.549576  Gnorm:      0.009675  CPU:   31.564
  ** Hessian calculated **
  Cycle:    562 Energy:      -424.549585  Gnorm:      0.009674  CPU:   31.652
  Cycle:    563 Energy:      -424.549597  Gnorm:      0.009673  CPU:   31.704
  Cycle:    564 Energy:      -424.549665  Gnorm:      0.009673  CPU:   31.808
  Cycle:    565 Energy:      -424.549803  Gnorm:      0.009703  CPU:   31.900
  Cycle:    566 Energy:      -424.550162  Gnorm:      0.010291  CPU:   31.988
  Cycle:    567 Energy:      -424.550452  Gnorm:      0.011864  CPU:   32.064
  ** Hessian calculated **
  Cycle:    568 Energy:      -424.551048  Gnorm:      0.012874  CPU:   32.204
  Cycle:    569 Energy:      -424.551949  Gnorm:      0.018996  CPU:   32.280
  Cycle:    570 Energy:      -424.552933  Gnorm:      0.026786  CPU:   32.356
  Cycle:    571 Energy:      -424.553729  Gnorm:      0.066669  CPU:   32.416
  ** Hessian calculated **
  Cycle:    572 Energy:      -424.554097  Gnorm:      0.033863  CPU:   32.528
  Cycle:    573 Energy:      -424.554176  Gnorm:      0.016341  CPU:   32.580
  Cycle:    574 Energy:      -424.554222  Gnorm:      0.017699  CPU:   32.628
  Cycle:    575 Energy:      -424.554259  Gnorm:      0.013372  CPU:   32.680
  Cycle:    576 Energy:      -424.554287  Gnorm:      0.010598  CPU:   32.728
  Cycle:    577 Energy:      -424.554301  Gnorm:      0.008364  CPU:   32.780
  Cycle:    578 Energy:      -424.554310  Gnorm:      0.007929  CPU:   32.828
  Cycle:    579 Energy:      -424.554319  Gnorm:      0.007488  CPU:   32.880
  Cycle:    580 Energy:      -424.554327  Gnorm:      0.008253  CPU:   32.932
  Cycle:    581 Energy:      -424.554337  Gnorm:      0.008805  CPU:   32.984
  ** Hessian calculated **
  Cycle:    582 Energy:      -424.554347  Gnorm:      0.008805  CPU:   33.076
  Cycle:    583 Energy:      -424.554363  Gnorm:      0.008805  CPU:   33.128
  Cycle:    584 Energy:      -424.554448  Gnorm:      0.008838  CPU:   33.236
  Cycle:    585 Energy:      -424.554568  Gnorm:      0.008987  CPU:   33.328
  Cycle:    586 Energy:      -424.554637  Gnorm:      0.009270  CPU:   33.420
  ** Hessian calculated **
  Cycle:    587 Energy:      -424.554929  Gnorm:      0.009433  CPU:   33.560
  Cycle:    588 Energy:      -424.555589  Gnorm:      0.013113  CPU:   33.652
  Cycle:    589 Energy:      -424.556152  Gnorm:      0.016457  CPU:   33.728
  Cycle:    590 Energy:      -424.556769  Gnorm:      0.038415  CPU:   33.808
  Cycle:    591 Energy:      -424.557578  Gnorm:      0.044037  CPU:   33.888
  ** Hessian calculated **
  Cycle:    592 Energy:      -424.557744  Gnorm:      0.025412  CPU:   33.984
  Cycle:    593 Energy:      -424.557796  Gnorm:      0.016219  CPU:   34.036
  Cycle:    594 Energy:      -424.557838  Gnorm:      0.014400  CPU:   34.088
  Cycle:    595 Energy:      -424.557861  Gnorm:      0.010854  CPU:   34.136
  Cycle:    596 Energy:      -424.557874  Gnorm:      0.009328  CPU:   34.184
  Cycle:    597 Energy:      -424.557886  Gnorm:      0.008857  CPU:   34.232
  Cycle:    598 Energy:      -424.557895  Gnorm:      0.007657  CPU:   34.280
  Cycle:    599 Energy:      -424.557903  Gnorm:      0.007484  CPU:   34.328
  Cycle:    600 Energy:      -424.557911  Gnorm:      0.007911  CPU:   34.376
  Cycle:    601 Energy:      -424.557920  Gnorm:      0.007818  CPU:   34.424
  ** Hessian calculated **
  Cycle:    602 Energy:      -424.557926  Gnorm:      0.007818  CPU:   34.512
  Cycle:    603 Energy:      -424.557936  Gnorm:      0.007818  CPU:   34.560
  Cycle:    604 Energy:      -424.557992  Gnorm:      0.007830  CPU:   34.652
  Cycle:    605 Energy:      -424.558105  Gnorm:      0.007932  CPU:   34.736
  Cycle:    606 Energy:      -424.558445  Gnorm:      0.009599  CPU:   34.824
  Cycle:    607 Energy:      -424.558656  Gnorm:      0.010531  CPU:   34.904
  Cycle:    608 Energy:      -424.558742  Gnorm:      0.014534  CPU:   34.976
  ** Hessian calculated **
  Cycle:    609 Energy:      -424.558756  Gnorm:      0.007811  CPU:   35.060
  Cycle:    610 Energy:      -424.558762  Gnorm:      0.007034  CPU:   35.112
[...]
    48      393.2184                  0.00000010880174
    49      396.0164                  0.00000047404493
    50      396.8813                  0.00000028466223
    51      406.1678                  0.00000004067056
    52      406.7777                  0.00000001873909
    53      410.1392                  0.00000004118837
    54      419.7161                  0.00000000000000
    55      438.0087                  0.00000000000000
    56      457.0303                  0.00000024825352
    57      457.8227                  0.00000027151365
    58      460.8982                  0.00000044236766
    59      464.1561                  0.00000035239374
    60      464.7088                  0.00000007916556
    61      493.8834                  0.00000329279792
    62      500.4440                  0.00000915287790
    63      507.7489                  0.00000860192754
    64      512.0314                  0.00000277885921
    65      539.8098                  0.00000013810156
    66      541.8465                  0.00000054552650
    67      542.8704                  0.00000259035029
    68      543.0253                  0.00000134117327
    69      545.0785                  0.00019540872089
    70      549.2721                  0.00009481120045
    71      551.8060                  0.00012028094299
    72      579.7740                  0.00000001166606
    73      581.1620                  0.00000023182412
    74      585.1064                  0.00000023732668
    75      596.6559                  0.00000000000000
    76      624.4502                  0.00000067197075
    77      625.7297                  0.00000910740747
    78      627.4614                  0.00001249321743
    79      627.7724                  0.00000529314627
    80      629.2396                  0.00000820929901
    81      635.8502                  0.00000715818885
    82      640.7875                  0.00000048126417
    83      651.4276                  0.00003453459433
    84      653.6140                  0.00000267656623
    85      654.4514                  0.00000049381374
    86      655.0179                  0.00003142770516
    87      676.2270                  0.00000000000000
    88      696.8408                  0.00000060492866
    89      700.3946                  0.00000182458697
    90      707.4599                  0.00000120142032
    91      717.1125                  0.00000293519839
    92      720.6541                  0.00000215578493
    93      722.2737                  0.00000023508024
    94      722.8245                  0.00006142841624
    95      724.8084                  0.00006519269535
    96      730.8658                  0.00010894270085
    97      740.2781                  0.00000066764484
    98      744.9978                  0.00000007356746
    99      746.0981                  0.00000060774760
   100      753.6486                  0.00000128140589
   101      758.2428                  0.00000238364169
   102      758.6662                  0.00000261101733
   103      759.7070                  0.00000387429155
   104      762.0872                  0.00000230028501
   105      763.1760                  0.00000564842524
   106      771.5364                  0.00000026336728
   107      772.2355                  0.00000023703605
   108      777.9227                  0.00000536768851
   109      784.0791                  0.00000494757317
   110      796.0434                  0.00000000000000
   111      822.8500                  0.00000015818169
   112      823.4913                  0.00005754093050
   113      825.4333                  0.00000061411482
   114      827.2560                  0.00000032194108
   115      827.8755                  0.00005693877848
   116      829.6368                  0.00001207430715
   117      854.8153                  0.00000047459049
   118      855.2344                  0.00001028789687
   119      861.3118                  0.00001031611681
   120      878.0259                  0.00000110185436
   121      882.8248                  0.00000166203993
   122      889.8805                  0.00000138729270
   123      890.5557                  0.00000006991512
   124      895.9112                  0.00001045879013
   125      900.6319                  0.00000258353991
   126      901.9197                  0.00000079833101
   127      904.0827                  0.00000804730153
   128      906.2507                  0.00000096482537
   129      908.3953                  0.00000396926752
   130      908.7800                  0.00000111859455
   131      909.5046                  0.00000169628640
   132      910.3684                  0.00000128403430
   133      913.3993                  0.00000225478180
   134      918.8714                  0.00001045187726
   135      920.7299                  0.00000200683684
   136      923.7145                  0.00000974845295
   137      932.0039                  0.00000026370525
   138      968.6499                  0.00000215518646
   139      975.0261                  0.00000972940568
   140      980.0202                  0.00000752502956
   141      989.1579                  0.00000111376280
   142      994.3332                  0.00000110219910
   143     1004.7795                  0.00000021235032
   144     1008.6278                  0.00001126806303
   145     1009.0467                  0.00000655940374
   146     1009.7027                  0.00001715486836
   147     1021.9104                  0.00000115244211
   148     1025.5055                  0.00003717819965
   149     1033.3509                  0.00007014308060
   150     1033.4697                  0.00004904667181
   151     1034.5598                  0.00004061979325
   152     1035.5647                  0.00000959215824
   153     1035.8351                  0.00003996965282
   154     1039.1618                  0.00004330569313
   155     1039.7148                  0.00003903336996
   156     1049.5018                  0.00000000000000
   157     1067.2382                  0.00000328146314
   158     1074.4884                  0.00000331915481
   159     1076.3217                  0.00000000302862
   160     1077.1061                  0.00000007890198
   161     1089.9503                  0.00000000000000
   162     1125.0539                  0.00001864268828
   163     1127.8863                  0.00001253542067
   164     1129.0870                  0.00002029911901
   165     1130.0005                  0.00009284343933
   166     1132.9482                  0.00012347626485
   167     1152.1004                  0.00000124581731
   168     1153.7410                  0.00000060025405
   169     1156.0367                  0.00001545349104
   170     1156.7590                  0.00000140060968
   171     1159.9221                  0.00000599320699
   172     1162.9214                  0.00001396230683
   173     1165.9064                  0.00000123429868
   174     1204.5822                  0.00000000000000
   175     1232.9159                  0.00000000000000
   176     1255.6793                  0.00000032678109
   177     1261.5092                  0.00000200823899
   178     1262.4051                  0.00000158597833
   179     1265.2854                  0.00001396518577
   180     1265.8838                  0.00001619017618
   181     1265.9497                  0.00000011116882
   182     1266.7831                  0.00000641428840
   183     1268.7503                  0.00000201956815
   184     1275.2213                  0.00000038861876
   185     1285.0453                  0.00003350805633
   186     1287.5366                  0.00003632272544
   187     1293.4312                  0.00000291744467
   188     1308.1496                  0.00000115992098
   189     1316.2685                  0.00000114565602
   190     1324.8105                  0.00005456432483
   191     1328.3547                  0.00012860701150
   192     1331.2603                  0.00006393566208
   193     1332.1213                  0.00004817587197
   194     1345.3010                  0.00000034487096
   195     1350.3755                  0.00000041705272
   196     1355.1779                  0.00000392214472
   197     1356.7772                  0.00003246919142
   198     1361.1076                  0.00000163472434
   199     1362.9885                  0.00004243197513
   200     1365.6309                  0.00001240975906
   201     1378.3943                  0.00000844115369
   202     1384.5267                  0.00000885631766
   203     1384.7104                  0.00000896476647
   204     1385.7792                  0.00000972327347
   205     1387.1391                  0.00000868809273
   206     1388.0542                  0.00001900256641
   207     1396.2831                  0.00000836082597
   208     1397.1184                  0.00000388683195
   209     1400.7901                  0.00000552459461
   210     1416.7072                  0.00000026090362
   211     1417.4838                  0.00000017671593
   212     1421.1954                  0.00000105560189
   213     1427.2724                  0.00001331933403
   214     1428.3661                  0.00001016705107
   215     1429.8026                  0.00000758647970
   216     1430.3639                  0.00001207077171
   217     1431.6712                  0.00001734897177
   218     1433.8692                  0.00001282699177
   219     1435.1925                  0.00001915534709
   220     1443.3637                  0.00000190844235
   221     1451.6348                  0.00002455573523
   222     1452.2517                  0.00000700255719
   223     1452.8653                  0.00003414679845
   224     1453.0277                  0.00002462468186
   225     1453.1139                  0.00003754884619
   226     1453.3411                  0.00001130568658
   227     1454.6214                  0.00003250681845
   228     1456.6504                  0.00008162399360
   229     1457.9707                  0.00000000251684
   230     1459.5206                  0.00002754699176
   231     1468.2574                  0.00000130231409
   232     1469.6320                  0.00000037160889
   233     1473.3881                  0.00000157258544
   234     1478.9738                  0.00000037605828
   235     1489.3955                  0.00001289682046
   236     1495.3422                  0.00000127860761
   237     1496.2064                  0.00001136744166
   238     1497.4354                  0.00000232436273
   239     1498.1550                  0.00000110851924
   240     1518.6558                  0.00000000000000
   241     1542.6499                  0.00000527695187
   242     1545.2693                  0.00000525907719
   243     1555.1231                  0.00000001867962
   244     1556.2502                  0.00000118478711
   245     1561.7846                  0.00000119345940
   246     1587.6293                  0.00000000000000
   247     1637.7147                  0.00000000000000
   248     1649.0151                  0.00000000000000
   249     1699.2487                  0.00000518342814
   250     1702.8053                  0.00000516179776
   251     2868.6242                  0.00000000000000
   252     2908.0393                  0.00002108760743
   253     2911.3704                  0.00001170657462
   254     2915.1681                  0.00001949385702
   255     2971.4857                  0.00001874754894
   256     2974.3697                  0.00001324851315
   257     2976.8041                  0.00001767723242
   258     2977.0320                  0.00000122425440
   259     2977.8431                  0.00000034278000
   260     3061.0160                  0.00000816004449
   261     3061.7310                  0.00000830517660
   262     3062.2294                  0.00001066616242
   263     3062.7305                  0.00000689598311
   264     3063.3639                  0.00000954245229
--------------------------------------------------------------------------------
  Thermal conductivity =     0.000289 W/(m.K) 
--------------------------------------------------------------------------------

--------------------------------------------------------------------------------
  Phonon properties (per mole of unit cells): Temperature =  50000.000 K
--------------------------------------------------------------------------------
  Zero point energy            =       16.158582 eV
  Entropy                      =        0.106232 eV/K
                               =    10249.748214 J/(mol.K)
  Helmholtz free-energy        =    -4628.728515 eV
                               =  -446601.506038 kJmol-1
  Free energy (equipartition)  =    -4628.783367 eV
  - T*S       (equipartition)  =    -5311.537386 eV
  Uvib        (equipartition)  =     1107.327691 eV
  Mean kinetic energy          =      568.799034 eV
  Heat capacity - const volume =        0.022144 eV/K
                               =     2136.592051 J/(mol.K)
--------------------------------------------------------------------------------

  Phonon density of states : 

--------------------------------------------------------------------------------
 Frequency (cm-1) Density of States                                             
--------------------------------------------------------------------------------
    0.00000 |****************************************                      0.038
   47.86506 |****                                                          0.004
   95.73012 |****************                                              0.015
  143.59518 |********                                                      0.008
  191.46025 |************************                                      0.023
  239.32531 |****************                                              0.015
  287.19037 |********************************                              0.031
  335.05543 |************************                                      0.023
  382.92049 |****************************************                      0.038
  430.78555 |************************                                      0.023
  478.65061 |****************                                              0.015
  526.51568 |****************************                                  0.027
  574.38074 |****************                                              0.015
  622.24580 |********************************************                  0.042
  670.11086 |********************                                          0.019
  717.97592 |********************************************************      0.054
  765.84098 |********************                                          0.019
  813.70605 |************************************                          0.034
  861.57111 |********************************************                  0.042
  909.43617 |****************************                                  0.027
  957.30123 |************************                                      0.023
 1005.16629 |****************************************************          0.050
 1053.03135 |********************                                          0.019
 1100.89641 |********************                                          0.019
 1148.76148 |****************************                                  0.027
 1196.62654 |********                                                      0.008
 1244.49160 |********************************************                  0.042
 1292.35666 |****************************                                  0.027
 1340.22172 |****************************************************          0.050
 1388.08678 |****************************************************          0.050
 1435.95184 |************************************************************  0.057
 1483.81691 |************************                                      0.023
 1531.68197 |********************                                          0.019
 1579.54703 |****                                                          0.004
 1627.41209 |********                                                      0.008
 1675.27715 |********                                                      0.008
 1723.14221 |                                                              0.000
 1771.00727 |                                                              0.000
 1818.87234 |                                                              0.000
 1866.73740 |                                                              0.000
 1914.60246 |                                                              0.000
 1962.46752 |                                                              0.000
 2010.33258 |                                                              0.000
 2058.19764 |                                                              0.000
 2106.06271 |                                                              0.000
 2153.92777 |                                                              0.000
 2201.79283 |                                                              0.000
 2249.65789 |                                                              0.000
 2297.52295 |                                                              0.000
 2345.38801 |                                                              0.000
 2393.25307 |                                                              0.000
 2441.11814 |                                                              0.000
 2488.98320 |                                                              0.000
 2536.84826 |                                                              0.000
 2584.71332 |                                                              0.000
 2632.57838 |                                                              0.000
 2680.44344 |                                                              0.000
 2728.30850 |                                                              0.000
 2776.17357 |                                                              0.000
 2824.03863 |****                                                          0.004
 2871.90369 |************                                                  0.011
 2919.76875 |                                                              0.000
 2967.63381 |********************                                          0.019
 3015.49887 |********************                                          0.019
--------------------------------------------------------------------------------



  Time to end of optimisation =      89.3880 seconds


  Peak dynamic memory used =       2.31 MB 


  Timing analysis for GULP :

--------------------------------------------------------------------------------
  Task / Subroutine                                          Time (Seconds)
--------------------------------------------------------------------------------
  Calculation of real space energy and derivatives               47.2440
  Calculation of three-body energy and derivatives                8.3280
  Calculation of four-body energy and derivatives                 4.4120
  Calculation of Bond Order energy and derivatives               10.9720
  Calculation of molecules and connectivity                      11.9200
  Calculation of phonons                                          0.7560
  Calculation of scattering                                       0.0000
  Calculation of matrix inversion                                 4.0840
  Global summation overhead                                       0.0040
--------------------------------------------------------------------------------
  Total CPU time                                                 89.3880
--------------------------------------------------------------------------------


  LAMMPS file written on channel 26


  Job Finished at 15:55.09  8th July       2013                               

