ITEM: TIMESTEP
24
ITEM: NUMBER OF ATOMS
256
ITEM: BOX BOUNDS
0.0133089 6.33209
0.0133089 6.33209
0.0133089 6.33209
ITEM: ATOMS fx fy fz 
0.0129615 0.0176242 -0.00151021 
0.00474403 -0.00202237 -0.00944826 
0.0144641 0.0129088 0.0109488 
-0.0114123 -0.0101723 0.0136672 
0.00964918 0.0208125 0.0134039 
0.0174896 0.00522782 0.00755156 
-0.0113307 -0.00286946 -0.0156647 
-0.00230221 0.00863974 0.00244648 
0.0132366 -0.019141 0.00133549 
0.00191106 0.00220261 -0.0149297 
0.000196086 0.00329109 -0.0214665 
0.000504795 0.00177113 -0.00408967 
0.00183078 -0.00391283 0.00902357 
0.00149298 -0.00355111 0.00853435 
-0.0141698 -0.00204276 0.00821588 
-0.00179559 0.00181839 -0.00955271 
-0.00834758 0.0207072 0.0139387 
-0.00727708 -0.013987 -0.00942239 
0.0109462 0.000592362 -0.00792111 
-0.00739395 -0.00365042 -0.00735231 
0.00968779 -0.0210607 0.0100791 
-0.000486035 -0.0137748 -0.00378165 
-0.00121273 -0.00640121 0.00282032 
0.00457054 0.00883157 -0.0162219 
-0.00236964 -0.0112791 -0.00349878 
0.000332007 0.010165 0.00935788 
0.00294216 0.000240693 0.00353355 
0.0034886 0.00880186 0.00337813 
0.00213206 0.0248409 -0.00325055 
-0.0179108 -0.0146816 0.0106126 
-0.00595557 0.000211879 -0.00420604 
-0.0754206 -0.00154121 0.0293434 
-0.0098271 0.0276107 -0.017011 
-0.0157946 -0.00293035 0.0124899 
0.0104931 -0.0053799 0.0014707 
-0.0111041 0.00138845 0.0256074 
-0.00427135 0.00519939 -0.00300664 
0.00305215 0.00510598 0.00639659 
-0.00201742 0.0202136 0.0187872 
-0.00884746 -0.0180744 -0.00262843 
-0.00717403 -0.00672831 0.00716569 
-0.0159165 0.0164931 0.00458662 
0.0118976 -0.00372126 -0.00554041 
0.0266185 -0.0170166 -0.0335816 
-0.00592922 0.0116496 0.0124255 
0.00628748 0.00782256 0.0201745 
0.00895699 0.0215096 -0.00338079 
-0.00790877 0.00680023 -0.0169735 
-0.00541867 -0.015294 -0.0225946 
-0.0106061 -0.0044185 0.00748729 
-0.0102744 -0.000146394 0.00930095 
0.0259308 0.022897 -0.00624316 
0.00247344 -0.0125411 0.0201723 
-0.000866423 0.000234965 0.00244164 
0.0249204 -0.0047795 -0.00925286 
-0.000646454 0.00783736 -0.00334712 
-0.00234895 0.00153459 0.00608112 
-0.0293076 -0.0337861 -0.00496561 
-0.00131451 -0.0112957 -0.00759193 
-0.00344687 -0.00207435 -0.0126549 
0.00978562 0.000227758 -0.0272826 
0.00279027 0.00518015 -0.0071711 
-0.0197174 -0.011008 -0.000538733 
-0.0245174 0.0082938 0.0264176 
-0.00347096 0.00153986 0.00265287 
-0.0109595 -0.0161059 -0.0038126 
-0.0158399 -0.00138956 0.00312054 
-0.00179334 -0.00072011 0.00973879 
-0.0193851 0.00424353 -0.0119647 
-0.0133996 -0.0150311 0.0110514 
0.00222336 0.0286753 0.00322819 
0.0223262 -0.0189976 0.0234035 
-0.000414665 0.00533953 0.00187222 
0.000821104 0.00300489 -0.00659817 
0.0136462 0.00404483 0.00527794 
-0.00384673 0.00251802 0.00630527 
0.0224007 -0.0133 0.00185158 
-0.00745156 0.0137702 0.000355505 
0.00347552 -0.00452035 -0.00557508 
0.00535462 0.0345488 -0.00814424 
-0.00758362 0.00376134 -0.00276987 
0.017047 -0.017646 -0.0402484 
0.00650833 -0.00574172 -0.0084184 
-0.00621187 -0.00876165 0.0219453 
-0.0102892 0.0031138 0.0194438 
0.00336982 -0.0124864 -0.0285368 
0.00530783 0.00263465 0.00163254 
-0.0271461 0.0102857 0.00323528 
0.0025218 0.00406289 -0.0105425 
-0.00131379 -0.00608228 0.0036694 
0.00347059 0.00703261 0.00887783 
0.00380974 -0.00378388 0.0124513 
0.00535554 0.01407 0.00633712 
0.00393154 -0.00575655 -0.0165456 
-6.94623e-05 -0.00760019 0.00916238 
-0.0326959 0.00868465 -0.00670975 
0.0402965 0.000395584 -0.0080957 
-0.00344963 -0.00934288 -0.00361339 
0.0128587 0.000622463 -0.0121254 
-0.00531089 0.00279122 0.00658753 
-0.0196934 0.0171843 0.013721 
0.00420785 -0.00228151 -0.00149145 
0.00624429 0.00988242 -0.000797388 
0.00233029 0.00659777 -0.00178473 
-0.00132982 -0.00627931 -0.00180069 
0.00181946 -0.0086883 0.00216112 
-0.00812039 -0.0112081 -0.012055 
-0.00372957 -0.0280932 0.00838527 
-0.00135753 0.0154614 -0.0194725 
0.012683 -0.00668771 0.0163786 
0.0024946 -0.0160979 -0.00206179 
0.0032132 0.00689182 0.0105872 
-0.0044833 -0.00755554 -0.00374722 
0.0102592 0.0214995 -0.00580152 
0.00227999 -0.0105563 0.00423423 
0.00662898 -0.0142495 -0.0032629 
0.00217349 0.0019875 0.000320299 
0.00916632 0.0148067 -0.00728849 
0.0146059 0.00850133 -0.00846011 
0.00690493 -0.00498908 -0.00363588 
-0.000981992 -0.00287432 0.00102492 
0.00578029 0.00271148 -0.0110263 
-0.0099973 -0.00229481 -0.00323825 
0.0200898 -0.00963081 0.00100201 
-0.00863931 0.0227528 0.0155492 
0.00315986 0.000535417 0.0315218 
-0.0105928 0.0307325 -0.004084 
-0.00336152 0.00805363 0.0163984 
0.00867366 -0.0172001 -0.0253883 
-0.000741024 0.0230614 0.0118374 
-0.00826546 0.00672972 -0.00973343 
0.0100186 0.0070638 0.000641752 
0.0611554 -0.0227354 -0.018315 
-0.0030639 0.00135632 -0.00538578 
-0.00972875 0.00270764 -0.014464 
-0.00666658 0.000217808 -0.0030978 
0.00903895 -0.00982028 0.00861432 
-0.0130411 -0.00483943 -0.00605836 
-0.00572934 -0.0070115 -0.0078291 
-0.0201087 0.00983525 0.00370345 
-0.00256022 -0.0123334 -0.0197753 
-0.00304654 -0.00606918 0.00737166 
-0.00395238 -0.0101742 -0.0164903 
0.0120364 -0.0112541 0.00536773 
0.0133722 0.00648259 -0.00689286 
0.00266891 -0.00637606 -0.000178022 
0.00387312 0.0112624 0.00655508 
-0.00534532 0.0093148 0.00418843 
0.0015261 0.0172088 0.0120687 
-0.0190648 0.0106229 -0.0175273 
-0.00689763 0.0102786 -0.00354056 
0.00704078 -0.0109756 0.00659584 
-0.00463602 -0.0160389 0.00985298 
0.000540523 -0.0543938 -0.000437258 
-0.00449891 0.0125466 0.0145528 
-0.00663907 -0.00735605 0.00039814 
0.0084651 -0.0242119 -0.0136706 
-0.0045668 0.00216055 -0.00111343 
-0.00684466 0.011386 0.0191439 
-0.0154967 0.0114343 0.0132597 
0.00184444 0.00458507 -0.00569938 
0.00561478 -0.00709415 0.0104922 
-0.0180269 -0.00962681 -0.00173213 
0.011203 0.02556 -0.0300702 
-0.00558821 0.00418026 -0.00768758 
-0.0122919 0.00601803 -0.0131824 
0.00597292 0.0084012 -0.00770824 
0.0138904 -0.0101787 0.00783244 
-0.0051288 -0.00945142 0.00647005 
8.95409e-05 0.000897724 -0.00303758 
-0.00256965 -0.0135409 -0.00523272 
0.00304947 -0.00334273 -0.0182645 
-0.00642608 -0.0187115 -0.0002612 
0.00302802 -0.00473981 0.0231741 
0.00294223 0.00709381 0.0282531 
0.00152198 -0.0144963 -0.0144497 
0.00639395 0.0130431 0.00108681 
-0.00844824 -0.00884323 -0.00703258 
0.0111908 -0.0031385 -0.00822727 
-0.0102267 0.00616392 0.00259166 
0.0084464 0.0180508 -0.0127243 
0.0051436 -0.00209042 -0.00667563 
0.00141321 0.00580312 -0.0106954 
-0.0119552 0.0157778 -0.0196714 
0.00480982 0.00856195 0.0114348 
0.037909 0.00981284 -0.0183381 
-0.00358963 -0.00984378 0.0121035 
0.0150532 0.000111194 0.0308579 
-0.00472482 0.0185398 -0.0051945 
-0.000918777 0.00312407 0.0130418 
-0.00239002 0.00156813 0.0183544 
0.00348766 0.00236744 0.00152257 
0.0103972 0.0169936 -0.0125108 
0.00134141 -0.00947056 -0.0037431 
0.00556507 -0.00611729 -0.004785 
-0.016884 0.000443355 0.00136228 
0.00212393 -0.000695523 -0.00138651 
0.00593119 0.00814863 -0.00223594 
-0.00319104 -0.0114369 -0.00148917 
-0.0128185 0.0155953 -0.026147 
0.013979 -0.00885972 0.000659842 
-0.0025411 0.00779753 0.00875164 
-0.00510699 -0.0074565 -0.00770218 
-0.00262464 0.00234763 0.00649257 
-0.000873917 -0.000291791 0.0138961 
-0.00758493 -0.0284739 -0.00039166 
-0.00738697 0.00923074 0.00564796 
0.00358906 -0.0242728 0.00281773 
0.0104625 -0.00147058 0.0099307 
0.0080774 0.00667272 -0.0122677 
-0.00450896 -0.0162251 -0.00435647 
-0.0230805 -0.0488793 -0.0274216 
-0.00546939 0.0193943 0.00927951 
-0.00925074 0.00911016 0.0288651 
-0.00606504 0.0264569 0.00718783 
-0.00498941 0.016831 -0.00283032 
-0.0211886 -0.0202961 -0.00205341 
-0.00172198 0.0141416 0.0091777 
-0.00781166 0.00542297 0.00533596 
0.0118086 -0.015989 0.0141444 
0.00397297 0.00145834 -0.0165679 
0.000855483 -0.0188743 0.0358089 
0.0165219 0.0221902 -0.00426384 
-0.00668968 0.00425728 -0.00314226 
0.0010856 0.01587 0.0124045 
-0.0143112 0.00191476 0.00889388 
0.00450336 -0.00660245 -0.00354112 
0.00274473 0.00278925 -0.00556477 
0.0106059 0.00171873 -0.00239351 
0.0306507 0.00351596 0.00350788 
-0.000181619 0.00850686 0.00328055 
0.00638408 0.00644902 -0.00631569 
0.00641545 0.000929763 -0.0210388 
0.0144314 -0.00763872 -0.0159832 
0.01325 0.00700389 0.0221491 
0.00830135 -0.0150287 -5.72029e-05 
0.000607294 0.0103226 0.00437904 
0.0209752 0.00508664 -0.0177522 
-0.0109262 -0.0140131 -0.000559846 
0.00882422 -0.0019561 -0.000459924 
0.0118842 -0.0170061 -0.0128822 
0.0243763 -0.0242856 -0.00482827 
-0.00113254 0.00872381 0.00734494 
-0.00515689 -0.00558523 0.00665137 
-0.00615814 -0.00171783 -0.00396577 
-0.0152059 0.013225 -0.00462428 
0.00338709 -0.019615 0.00220285 
0.00206753 0.00709628 0.00800893 
0.00243761 -0.00203796 0.00466594 
-0.0290058 -0.0103042 -0.00852958 
-0.00654169 -0.00494449 0.00866691 
-0.000828132 0.00945332 -0.00210829 
-0.0195935 0.0139266 0.0172381 
-0.00113997 0.00278751 0.00596817 
0.0119866 0.0109129 0.00719513 
0.0151955 -0.0280122 -0.00649119 
ITEM: TIMESTEP
25
ITEM: NUMBER OF ATOMS
256
ITEM: BOX BOUNDS
0.0133089 6.33209
0.0133089 6.33209
0.0133089 6.33209
ITEM: ATOMS fx fy fz 
0.0128372 0.017534 -0.00156666 
0.00475588 -0.00204513 -0.00937231 
0.0143987 0.0129743 0.0109625 
-0.011401 -0.010134 0.0136382 
0.00962952 0.0207861 0.0134271 
0.0172165 0.00513671 0.00745257 
-0.0112464 -0.00284886 -0.0155579 
-0.00227768 0.00860476 0.00242461 
0.0130942 -0.0189903 0.00132959 
0.00191998 0.0022265 -0.0148804 
0.00022749 0.00328408 -0.0213592 
0.000488602 0.00171952 -0.00404916 
0.00183025 -0.00382867 0.00894162 
0.0015075 -0.00353694 0.00853526 
-0.0140881 -0.00194925 0.00821634 
-0.00178611 0.00182307 -0.0095497 
-0.00827354 0.0205303 0.0139058 
-0.00722841 -0.0139775 -0.00937373 
0.0109375 0.000592065 -0.00792074 
-0.00728139 -0.00354703 -0.00729327 
0.00971498 -0.02103 0.0100352 
-0.000505017 -0.0137381 -0.00380522 
-0.00116815 -0.00634286 0.00287702 
0.00452044 0.00883191 -0.0161268 
-0.00241106 -0.0111958 -0.00357774 
0.00034392 0.0100218 0.009235 
0.00291082 0.000253942 0.0035209 
0.00345263 0.00875964 0.00339566 
0.00210792 0.0247909 -0.00326666 
-0.017863 -0.0146981 0.010585 
-0.00588358 0.000191581 -0.00408087 
-0.0743061 -0.00155706 0.0288394 
-0.00986961 0.0275105 -0.016848 
-0.0156964 -0.00301718 0.012506 
0.0104806 -0.00539416 0.00145498 
-0.0111082 0.00138976 0.025599 
-0.00423989 0.00520023 -0.00298008 
0.0030382 0.00504905 0.00637728 
-0.00204187 0.0200055 0.0185121 
-0.00884107 -0.0179712 -0.00251713 
-0.0070142 -0.00662562 0.007114 
-0.0157526 0.0163504 0.00447881 
0.0118302 -0.00380964 -0.00556152 
0.0262776 -0.016764 -0.0332223 
-0.00586654 0.0114772 0.0123019 
0.00621421 0.0076397 0.0200401 
0.00892557 0.0214693 -0.00331808 
-0.00782851 0.00679427 -0.0169089 
-0.00540236 -0.0151162 -0.022477 
-0.0106005 -0.00444456 0.0074855 
-0.0101702 -0.000167936 0.00929415 
0.0257543 0.0229129 -0.00634377 
0.00245803 -0.0125551 0.0201375 
-0.000850685 0.000220395 0.00243824 
0.0248928 -0.00480962 -0.0092361 
-0.00059769 0.0078235 -0.00334676 
-0.0023824 0.0014751 0.00604345 
-0.0290798 -0.0334737 -0.00489836 
-0.00129805 -0.0112596 -0.00754708 
-0.00341596 -0.00201754 -0.0125566 
0.00971105 0.000345842 -0.0271798 
0.00273282 0.00518187 -0.00718611 
-0.0195542 -0.0109535 -0.000364893 
-0.0243343 0.00821548 0.0260572 
-0.00349538 0.00152332 0.00262833 
-0.0109761 -0.0160817 -0.00380417 
-0.0156388 -0.00125131 0.00307942 
-0.00179973 -0.000714787 0.00972329 
-0.0191599 0.0043346 -0.0119645 
-0.01333 -0.0149498 0.0109615 
0.00232408 0.0285007 0.00318479 
0.0220825 -0.0189212 0.0232932 
-0.000378587 0.00533049 0.00190564 
0.000818047 0.00296856 -0.00662037 
0.0135717 0.00409843 0.00527715 
-0.00383909 0.00253038 0.00631575 
0.0221096 -0.0132512 0.00177401 
-0.0074102 0.0135881 0.000353269 
0.00339366 -0.00446915 -0.00559126 
0.0053194 0.0342982 -0.00821239 
-0.00758857 0.00370828 -0.00276523 
0.0167704 -0.017511 -0.0398562 
0.00645147 -0.00575084 -0.00837231 
-0.00616906 -0.00883724 0.0218501 
-0.0102006 0.0032388 0.0194038 
0.00341722 -0.012429 -0.0283767 
0.00530327 0.00263479 0.00165868 
-0.0269711 0.0101259 0.00320638 
0.00246464 0.00405013 -0.0105416 
-0.00128608 -0.00604981 0.00367566 
0.00343757 0.00697542 0.00878882 
0.00381747 -0.00378665 0.0124728 
0.00537037 0.014103 0.00630199 
0.00386475 -0.00574728 -0.0164843 
-5.41307e-05 -0.00752894 0.00914028 
-0.032377 0.00850681 -0.00672075 
0.0398664 0.00040255 -0.0081176 
-0.00340548 -0.00934076 -0.00364497 
0.0128624 0.000600984 -0.0121317 
-0.0053261 0.00277199 0.00656949 
-0.0193883 0.0170439 0.013569 
0.00421971 -0.00230113 -0.00152355 
0.00623714 0.00983204 -0.000791874 
0.00234281 0.00656466 -0.00173882 
-0.00130272 -0.00622211 -0.00176607 
0.00178789 -0.00870091 0.00212827 
-0.00813171 -0.0112103 -0.0120742 
-0.00370664 -0.0279597 0.00829754 
-0.00135716 0.0153101 -0.019344 
0.0125343 -0.00657271 0.0163324 
0.00248762 -0.0161132 -0.00208749 
0.00322981 0.006892 0.0105673 
-0.00452248 -0.00746441 -0.0037158 
0.0102408 0.0212674 -0.00573371 
0.00226369 -0.010518 0.00422906 
0.006573 -0.0141792 -0.00325937 
0.00218941 0.00199797 0.000353171 
0.00911283 0.0147569 -0.00739766 
0.0144782 0.0083913 -0.00845264 
0.00689781 -0.0049421 -0.00364773 
-0.000950753 -0.00287408 0.0010153 
0.00567941 0.00267564 -0.0109226 
-0.00992453 -0.00241218 -0.00321725 
0.0201064 -0.0094861 0.00102956 
-0.00862982 0.0227889 0.0155002 
0.00323031 0.00053888 0.0314419 
-0.0103829 0.0302843 -0.00404596 
-0.00338069 0.007919 0.0162673 
0.00867084 -0.0172528 -0.0253668 
-0.00083398 0.0230022 0.0116501 
-0.00824087 0.00670074 -0.00969298 
0.00999519 0.00707568 0.000653598 
0.0602049 -0.0225907 -0.0180045 
-0.00303872 0.0014035 -0.00539442 
-0.00968894 0.00258966 -0.0143564 
-0.00657628 0.000218772 -0.00308378 
0.00898488 -0.00971902 0.00857755 
-0.0128993 -0.00474855 -0.00603726 
-0.00575081 -0.00701451 -0.00774908 
-0.0198843 0.0097998 0.00374035 
-0.00259343 -0.0121666 -0.0196199 
-0.00306941 -0.00598604 0.00742339 
-0.00395416 -0.0101486 -0.0163885 
0.0118334 -0.0111466 0.00539632 
0.0133793 0.00649329 -0.00687559 
0.00261221 -0.00631696 -0.000160057 
0.00385969 0.011227 0.00654865 
-0.00537566 0.00929232 0.00420884 
0.00153608 0.0171767 0.0120768 
-0.0189221 0.0106467 -0.0174027 
-0.00688962 0.0102109 -0.0035125 
0.00703887 -0.0109263 0.00654818 
-0.00457969 -0.0160005 0.00977054 
0.000597986 -0.0539063 -0.000457022 
-0.00448706 0.0124465 0.014524 
-0.00661669 -0.00738248 0.000328181 
0.00844169 -0.0241652 -0.0136548 
-0.00452623 0.00216851 -0.0010989 
-0.00680863 0.0112039 0.0189079 
-0.0155188 0.0113879 0.0131233 
0.00185812 0.00462196 -0.00563543 
0.00559523 -0.00705917 0.01046 
-0.0178662 -0.0096385 -0.0017617 
0.0110438 0.0253763 -0.0298234 
-0.00558764 0.00416885 -0.00763342 
-0.012238 0.00594723 -0.0131885 
0.00592099 0.00836347 -0.00769477 
0.0138871 -0.0101537 0.0078565 
-0.00511468 -0.00936225 0.00647897 
0.000115418 0.000927159 -0.00304669 
-0.00251027 -0.0134701 -0.00522105 
0.00303568 -0.00330699 -0.0181854 
-0.00646886 -0.0185557 -0.000228704 
0.00299754 -0.00476111 0.0231259 
0.00297102 0.00707247 0.0282263 
0.0015211 -0.014477 -0.0144242 
0.00637622 0.0129891 0.00104932 
-0.00838975 -0.00885075 -0.00701239 
0.0111808 -0.00315047 -0.00822352 
-0.0101844 0.00618495 0.00256998 
0.00835078 0.0177548 -0.0126429 
0.00508532 -0.00208523 -0.00654849 
0.0013959 0.00569423 -0.0106575 
-0.0117709 0.015667 -0.0196071 
0.00480053 0.00854947 0.0114169 
0.0375513 0.00960613 -0.0183576 
-0.00359145 -0.00986913 0.0121205 
0.0149808 0.000118316 0.0308684 
-0.00476044 0.0184943 -0.00512654 
-0.000863521 0.00306783 0.0129831 
-0.00238918 0.00157005 0.0183563 
0.00342829 0.00237924 0.00158543 
0.0103963 0.0169919 -0.0125057 
0.00134853 -0.00941449 -0.00373581 
0.00551944 -0.00607738 -0.00473087 
-0.0166734 0.000521919 0.00135086 
0.00211131 -0.000698399 -0.00136201 
0.00592644 0.00814461 -0.00225123 
-0.00312967 -0.0114769 -0.00151841 
-0.0127634 0.0155016 -0.026108 
0.0138377 -0.00877868 0.000726049 
-0.00252367 0.00773859 0.00871441 
-0.00512732 -0.00738897 -0.00771009 
-0.00255103 0.00234718 0.0064386 
-0.000874776 -0.000300779 0.0138768 
-0.00756386 -0.0281833 -0.000471759 
-0.0073116 0.00918622 0.00561699 
0.00360829 -0.0241391 0.00276615 
0.0104692 -0.00137807 0.0099618 
0.0080497 0.00673918 -0.0122729 
-0.00445753 -0.0160656 -0.00427258 
-0.0228611 -0.048456 -0.0270813 
-0.00540558 0.0192203 0.00925056 
-0.00911426 0.00908494 0.0284798 
-0.00607446 0.0263643 0.00716256 
-0.00495387 0.016684 -0.00290467 
-0.0210635 -0.0200817 -0.00203241 
-0.00176309 0.0141198 0.00912008 
-0.00784735 0.00537658 0.00531599 
0.0117023 -0.0159328 0.0141412 
0.00398381 0.00146884 -0.0165168 
0.000874049 -0.0188145 0.0355707 
0.0165716 0.0220329 -0.00429469 
-0.00658569 0.00414755 -0.0031097 
0.00108734 0.0158889 0.0123732 
-0.0142743 0.00197718 0.00889117 
0.00448866 -0.00658751 -0.00352766 
0.00272685 0.00276472 -0.00553937 
0.0105924 0.00184034 -0.00244827 
0.0303577 0.00354414 0.00352261 
-0.00027071 0.00839057 0.00337978 
0.00635901 0.00639446 -0.00631812 
0.00641441 0.000926465 -0.0209768 
0.014299 -0.00750977 -0.0158068 
0.0130329 0.00683997 0.0219474 
0.00827966 -0.0150273 -2.06284e-05 
0.000601441 0.0102016 0.00431732 
0.0209221 0.00504312 -0.0177647 
-0.0108683 -0.013933 -0.000479748 
0.00868265 -0.00192373 -0.000486897 
0.0117365 -0.0168646 -0.0126948 
0.0240294 -0.024136 -0.00483423 
-0.001105 0.00851594 0.00736885 
-0.00516661 -0.00560714 0.00665205 
-0.00615999 -0.00172393 -0.00394959 
-0.0151073 0.0131468 -0.00462669 
0.00339878 -0.019512 0.00211693 
0.0020803 0.00705849 0.0079865 
0.00243018 -0.00200297 0.00468595 
-0.0287404 -0.0102524 -0.00858226 
-0.00659107 -0.0049139 0.00852224 
-0.00074139 0.00945756 -0.00224666 
-0.0195785 0.013931 0.0172377 
-0.00114218 0.00275891 0.0059634 
0.0119086 0.0108988 0.00718933 
0.0149864 -0.0277547 -0.00642718 
