ITEM: TIMESTEP
59
ITEM: NUMBER OF ATOMS
256
ITEM: BOX BOUNDS
0 6.3454
0 6.3454
0 6.3454
ITEM: ATOMS x y z 
0.774827 0.74208 4.74753 
2.72307 2.10846 1.10953 
1.59295 0.20988 1.41304 
5.15208 2.08389 2.01316 
1.39557 3.98909 5.29672 
2.92097 5.32176 4.80978 
1.88458 4.13943 2.49795 
4.00325 3.42811 4.88609 
5.80012 4.88414 3.2455 
0.148454 1.25693 1.70741 
0.132975 0.0733784 4.07677 
1.774 0.401566 5.88619 
5.33003 6.16111 5.79127 
0.00881908 3.88866 3.61076 
2.57651 3.91363 1.62545 
0.217399 2.28363 3.54264 
3.64568 3.65572 3.84777 
5.76801 2.03255 4.34874 
3.50116 5.63981 2.73956 
1.76008 2.24602 5.48512 
1.4921 3.73009 1.49678 
3.12937 4.57752 4.02976 
5.54416 3.08464 2.0974 
1.1274 2.94448 0.699439 
4.22932 4.36634 4.34559 
4.31904 3.63556 1.14816 
5.07203 2.83852 1.15232 
3.19676 3.31902 0.917748 
0.448552 6.24667 2.26161 
3.94526 2.61148 1.09239 
3.42978 6.25528 4.69752 
1.86571 4.84037 3.74432 
0.0644325 4.35731 5.36201 
6.03844 3.78112 0.338044 
1.98765 5.67353 4.38365 
1.72807 3.23497 3.18684 
3.18322 2.69742 1.86113 
2.96863 1.95725 3.79944 
6.05806 1.02761 0.747881 
1.44854 1.70855 4.63071 
4.37489 2.38279 4.70765 
4.90221 5.0977 3.85927 
2.511 5.95282 1.34523 
4.66329 0.848767 0.710064 
3.08466 0.624111 1.13853 
1.77579 2.88964 2.10811 
1.04095 1.88143 1.94246 
1.91036 5.27194 5.37661 
2.16955 3.04206 1.03976 
3.38739 6.25332 1.86051 
4.09736 1.60702 3.75216 
4.21469 1.62375 0.0168988 
1.29368 5.80939 6.05994 
2.2402 0.329403 0.550531 
2.1635 2.19399 0.155613 
0.0665462 0.110462 0.31839 
5.77316 1.26072 2.50224 
5.60969 3.91069 2.807 
0.427417 1.76701 4.49299 
2.66647 3.34728 2.54711 
0.299091 4.42515 2.75793 
4.40937 6.02625 5.20206 
2.55877 0.195265 4.05454 
4.64503 5.48772 0.676239 
1.31405 2.21041 3.71388 
3.34378 5.97113 5.73924 
3.70565 0.716803 0.244278 
2.52065 5.8765 2.42732 
3.89646 2.48901 5.66064 
3.84436 4.71844 2.19968 
5.53885 5.84234 4.65575 
5.00046 3.57652 0.327705 
0.609251 1.10097 0.175599 
5.61148 4.63596 2.00798 
3.20352 6.13123 0.471653 
5.34536 4.30614 5.94291 
4.68455 1.17988 2.38111 
5.3304 1.11999 1.51858 
0.445599 1.52049 2.76366 
3.86409 2.61744 3.77381 
1.89449 0.782976 4.89061 
0.902471 4.54621 1.82862 
4.92093 3.0927 2.99475 
2.75906 5.16155 0.629979 
0.682327 3.93458 6.22662 
1.23018 1.30648 5.61896 
4.10563 0.71585 4.5064 
1.61744 3.82939 0.390264 
5.82019 3.39246 5.66658 
2.16372 1.17147 1.24465 
3.27916 0.925491 3.81794 
2.895 3.00176 3.51595 
5.31382 2.90611 4.79899 
5.04752 3.97214 4.91872 
0.186116 1.32552 5.47744 
3.72837 5.25183 0.127684 
2.16337 3.18791 5.19784 
0.233982 5.73082 5.85769 
1.87039 4.84086 0.0273217 
5.31496 4.09885 3.83799 
0.489171 2.0801 0.994199 
2.34554 5.86853 6.21383 
4.43432 4.01711 3.21341 
0.993123 5.71438 3.92751 
2.63653 1.33073 2.91338 
1.12952 4.15178 3.41163 
5.58695 5.89138 3.57742 
1.11603 5.15367 2.92491 
2.77098 3.60424 4.43847 
3.69266 6.22839 3.65672 
3.91468 5.38454 4.33804 
4.65018 3.32339 4.053 
2.37285 4.08544 5.7621 
5.10821 0.47515 4.94884 
2.59863 4.11595 0.537056 
1.20728 6.09611 5.00638 
2.17065 2.65706 4.20769 
4.37625 1.45396 5.30351 
3.36181 1.48143 5.75089 
3.33674 4.13359 2.92975 
2.78929 1.32941 0.343918 
0.702943 0.357213 5.7781 
5.27696 5.53277 1.50529 
5.57534 5.72031 2.51284 
3.92933 4.93265 3.37702 
0.133478 5.24925 2.13674 
1.16131 0.234632 0.438672 
2.50126 1.79463 4.76243 
3.59998 3.69422 1.94035 
5.41356 0.5336 3.87264 
1.7041 3.68211 4.22287 
4.71506 3.9139 2.16775 
0.705578 2.2777 5.43545 
5.17701 0.3359 2.80477 
6.04641 0.983184 4.57873 
4.59052 4.6828 1.41692 
4.41693 2.90118 2.01768 
2.47964 3.18461 0.00155835 
3.22517 2.67571 4.66421 
4.36457 4.42737 0.360626 
6.24266 5.80728 1.25132 
4.72298 3.26896 5.68907 
3.80715 3.16331 2.85761 
3.70695 1.218 2.80749 
0.0121581 3.7992 1.9237 
1.94606 0.520758 3.06735 
4.64923 6.15919 4.15933 
5.89472 0.298605 1.90651 
4.84563 0.195834 1.77404 
0.999195 4.66353 0.667621 
0.392093 4.84982 3.849 
0.493238 0.320342 1.28463 
2.23404 4.48822 4.72372 
1.22543 2.83642 4.68745 
4.40792 2.15511 2.86793 
6.00984 3.7144 4.61116 
1.90318 5.83424 3.32426 
5.43887 3.83959 1.3069 
4.28226 6.18819 6.28484 
2.4277 3.97905 3.46557 
3.21248 3.36383 5.58826 
0.612883 5.59813 0.507888 
0.156779 2.79509 4.50851 
5.62034 2.70614 0.166123 
3.64606 1.56975 0.937974 
5.1069 1.41121 3.32106 
3.3179 2.378 0.230494 
2.96026 0.827775 4.93231 
1.08028 2.08008 0.0669499 
6.14115 1.31077 3.5837 
4.57124 5.82957 3.12703 
4.68182 1.84303 1.05586 
2.58075 4.91007 2.89157 
4.75734 5.22136 5.99991 
5.38464 4.66281 0.633669 
0.690065 3.96219 4.46006 
4.09922 0.00157867 1.02073 
1.80505 5.14794 2.09794 
2.84641 5.02978 5.83857 
0.31555 2.91295 6.33106 
1.62665 2.09609 1.08178 
4.35386 5.64362 2.0464 
0.502677 3.34849 5.34291 
3.40069 4.24423 6.22298 
5.86212 0.747726 6.06308 
1.69737 1.21598 0.263006 
4.40249 0.637461 3.48131 
3.04232 0.317519 2.93339 
3.99925 0.857952 1.65103 
0.737481 2.91556 1.70645 
6.30212 1.8986 0.0300004 
1.69536 5.65608 0.724228 
2.8398 0.503531 5.99791 
1.93654 4.67691 1.16523 
0.931538 4.87379 5.74026 
4.79328 0.749433 5.98933 
6.01285 2.35389 5.41755 
5.72384 5.60284 0.270925 
1.49033 6.13143 2.38202 
4.93585 1.38865 4.38565 
1.0867 0.795024 2.19604 
1.52614 1.51172 2.88983 
4.57328 2.57199 0.240057 
5.28181 1.60867 0.152248 
0.910288 1.16962 3.72831 
0.95343 3.60634 2.48863 
3.84059 0.543118 5.52768 
2.14215 1.88413 2.05776 
3.56227 1.66486 4.67108 
3.07633 1.39881 1.90551 
0.270314 5.50194 4.78331 
4.9218 2.33549 3.79443 
6.16306 2.99731 1.11953 
4.28616 4.2237 5.62842 
3.50645 4.36791 1.06288 
2.21585 2.31476 3.05671 
1.08905 1.16577 1.13889 
2.29903 1.36826 5.72132 
5.765 2.00685 1.07525 
1.49725 0.294102 4.05447 
2.84581 4.97639 1.79802 
3.29632 2.21245 2.80315 
3.84938 5.13738 5.3835 
0.956409 2.54264 2.76307 
3.29296 4.2983 5.07568 
4.00279 1.91409 1.92256 
2.09059 1.26065 3.87033 
0.974776 5.61493 1.53063 
2.80085 2.37961 5.62556 
5.82725 4.79383 4.4688 
6.33965 4.70782 1.16541 
4.83545 4.87936 2.70532 
2.42903 6.23264 5.1791 
3.91524 3.36648 0.107231 
6.19945 0.141314 5.18609 
0.900587 0.21009 3.18807 
5.65322 2.27202 2.95848 
5.43014 0.114719 0.856141 
4.08881 0.243205 2.55878 
5.73051 3.03858 3.75767 
4.97322 2.26558 5.66057 
6.29003 2.26325 2.0579 
0.0161841 4.77507 0.042929 
4.83512 5.04252 4.93694 
0.543996 3.77672 0.990666 
1.19703 4.90304 4.64277 
6.20131 0.3837 3.03555 
3.67125 5.39851 1.23047 
5.46311 1.41325 5.34652 
2.8796 5.55703 3.70978 
0.0287959 3.11534 2.8225 
1.37328 3.09575 5.9784 
5.74586 5.19732 5.50712 
0.795257 3.168 3.70274 
0.202945 5.68438 3.15663 
2.40662 0.541903 2.07122 
ITEM: TIMESTEP
60
ITEM: NUMBER OF ATOMS
256
ITEM: BOX BOUNDS
0 6.3454
0 6.3454
0 6.3454
ITEM: ATOMS x y z 
0.774827 0.74208 4.74753 
2.72307 2.10846 1.10953 
1.59295 0.20988 1.41304 
5.15208 2.08389 2.01316 
1.39557 3.98909 5.29672 
2.92097 5.32176 4.80978 
1.88458 4.13943 2.49795 
4.00325 3.42811 4.88609 
5.80012 4.88414 3.2455 
0.148454 1.25693 1.70741 
0.132975 0.0733784 4.07677 
1.774 0.401566 5.88619 
5.33003 6.16111 5.79127 
0.00881907 3.88866 3.61076 
2.57651 3.91363 1.62545 
0.217399 2.28363 3.54264 
3.64568 3.65572 3.84777 
5.76801 2.03255 4.34874 
3.50116 5.63981 2.73956 
1.76008 2.24602 5.48512 
1.4921 3.73009 1.49678 
3.12937 4.57752 4.02976 
5.54416 3.08464 2.0974 
1.1274 2.94448 0.699439 
4.22932 4.36634 4.34559 
4.31904 3.63556 1.14816 
5.07203 2.83852 1.15232 
3.19676 3.31902 0.917748 
0.448552 6.24667 2.26161 
3.94526 2.61148 1.09239 
3.42978 6.25528 4.69752 
1.86571 4.84037 3.74432 
0.0644325 4.35731 5.36201 
6.03844 3.78112 0.338044 
1.98765 5.67353 4.38365 
1.72807 3.23497 3.18684 
3.18322 2.69742 1.86113 
2.96863 1.95725 3.79944 
6.05806 1.02761 0.747881 
1.44854 1.70855 4.63071 
4.37489 2.38279 4.70765 
4.90221 5.0977 3.85927 
2.511 5.95282 1.34523 
4.66329 0.848767 0.710064 
3.08466 0.624111 1.13853 
1.77579 2.88964 2.10811 
1.04095 1.88143 1.94246 
1.91036 5.27194 5.37661 
2.16955 3.04206 1.03976 
3.38739 6.25332 1.86051 
4.09736 1.60702 3.75216 
4.21469 1.62375 0.0168988 
1.29368 5.80939 6.05994 
2.2402 0.329403 0.550531 
2.1635 2.19399 0.155613 
0.0665462 0.110462 0.31839 
5.77316 1.26072 2.50224 
5.60969 3.91069 2.807 
0.427417 1.76701 4.49299 
2.66647 3.34728 2.54711 
0.299091 4.42515 2.75793 
4.40937 6.02625 5.20206 
2.55877 0.195265 4.05454 
4.64503 5.48772 0.676239 
1.31405 2.21041 3.71388 
3.34378 5.97113 5.73924 
3.70565 0.716803 0.244278 
2.52065 5.8765 2.42732 
3.89646 2.48901 5.66064 
3.84436 4.71844 2.19968 
5.53885 5.84234 4.65575 
5.00046 3.57652 0.327705 
0.609251 1.10097 0.175599 
5.61148 4.63596 2.00798 
3.20352 6.13123 0.471653 
5.34536 4.30614 5.94291 
4.68455 1.17988 2.38111 
5.3304 1.11999 1.51858 
0.445599 1.52049 2.76366 
3.86409 2.61744 3.77381 
1.89449 0.782976 4.89061 
0.902471 4.54621 1.82862 
4.92093 3.0927 2.99475 
2.75906 5.16155 0.629979 
0.682327 3.93458 6.22662 
1.23018 1.30648 5.61896 
4.10563 0.71585 4.50641 
1.61744 3.82939 0.390264 
5.82019 3.39246 5.66658 
2.16372 1.17147 1.24465 
3.27916 0.925491 3.81794 
2.895 3.00176 3.51595 
5.31382 2.90611 4.79899 
5.04752 3.97214 4.91872 
0.186116 1.32552 5.47744 
3.72837 5.25183 0.127684 
2.16337 3.18791 5.19784 
0.233982 5.73082 5.85769 
1.87039 4.84086 0.0273217 
5.31496 4.09885 3.83799 
0.489171 2.0801 0.994199 
2.34554 5.86853 6.21383 
4.43432 4.01711 3.21341 
0.993123 5.71438 3.92751 
2.63653 1.33073 2.91338 
1.12952 4.15178 3.41163 
5.58695 5.89138 3.57742 
1.11603 5.15367 2.92491 
2.77098 3.60424 4.43847 
3.69266 6.22839 3.65672 
3.91468 5.38454 4.33804 
4.65018 3.32339 4.053 
2.37285 4.08544 5.7621 
5.10821 0.47515 4.94884 
2.59863 4.11595 0.537057 
1.20728 6.09611 5.00638 
2.17065 2.65706 4.20769 
4.37625 1.45396 5.30351 
3.36181 1.48143 5.75089 
3.33674 4.13359 2.92975 
2.78929 1.32941 0.343918 
0.702943 0.357213 5.7781 
5.27696 5.53277 1.50529 
5.57534 5.72031 2.51284 
3.92933 4.93265 3.37702 
0.133478 5.24925 2.13674 
1.16131 0.234632 0.438672 
2.50126 1.79463 4.76243 
3.59998 3.69422 1.94035 
5.41356 0.5336 3.87264 
1.7041 3.68211 4.22287 
4.71506 3.9139 2.16775 
0.705578 2.2777 5.43545 
5.17701 0.3359 2.80477 
6.04641 0.983184 4.57873 
4.59052 4.6828 1.41692 
4.41693 2.90118 2.01768 
2.47964 3.18461 0.00155834 
3.22517 2.67571 4.66421 
4.36457 4.42737 0.360626 
6.24266 5.80728 1.25132 
4.72298 3.26896 5.68907 
3.80715 3.16331 2.85761 
3.70695 1.218 2.80749 
0.0121581 3.7992 1.9237 
1.94606 0.520758 3.06735 
4.64923 6.15919 4.15933 
5.89472 0.298605 1.90651 
4.84563 0.195834 1.77404 
0.999195 4.66353 0.667621 
0.392093 4.84982 3.849 
0.493238 0.320342 1.28463 
2.23404 4.48822 4.72372 
1.22543 2.83642 4.68745 
4.40792 2.15511 2.86793 
6.00984 3.7144 4.61116 
1.90318 5.83424 3.32426 
5.43887 3.83959 1.3069 
4.28226 6.18819 6.28484 
2.4277 3.97905 3.46557 
3.21248 3.36383 5.58826 
0.612883 5.59813 0.507888 
0.156779 2.79509 4.50851 
5.62034 2.70614 0.166123 
3.64606 1.56975 0.937974 
5.1069 1.41121 3.32106 
3.3179 2.378 0.230494 
2.96026 0.827775 4.93231 
1.08028 2.08008 0.0669499 
6.14115 1.31077 3.5837 
4.57124 5.82957 3.12703 
4.68182 1.84303 1.05586 
2.58075 4.91007 2.89157 
4.75734 5.22136 5.99991 
5.38464 4.66281 0.633669 
0.690065 3.96219 4.46006 
4.09922 0.00157867 1.02073 
1.80505 5.14794 2.09794 
2.84641 5.02978 5.83857 
0.31555 2.91295 6.33106 
1.62665 2.09609 1.08178 
4.35386 5.64362 2.0464 
0.502677 3.34849 5.34291 
3.40069 4.24423 6.22298 
5.86212 0.747726 6.06308 
1.69737 1.21598 0.263006 
4.40249 0.637461 3.48131 
3.04232 0.317519 2.93339 
3.99925 0.857952 1.65103 
0.737481 2.91556 1.70645 
6.30212 1.8986 0.0300004 
1.69536 5.65608 0.724228 
2.8398 0.503531 5.99791 
1.93654 4.67691 1.16523 
0.931538 4.87379 5.74026 
4.79328 0.749433 5.98933 
6.01285 2.35389 5.41755 
5.72384 5.60284 0.270925 
1.49033 6.13143 2.38202 
4.93585 1.38865 4.38565 
1.0867 0.795024 2.19604 
1.52614 1.51172 2.88983 
4.57328 2.57199 0.240057 
5.28181 1.60867 0.152248 
0.910288 1.16962 3.72831 
0.95343 3.60634 2.48863 
3.84059 0.543117 5.52768 
2.14215 1.88413 2.05776 
3.56227 1.66486 4.67108 
3.07633 1.39881 1.90551 
0.270314 5.50194 4.78331 
4.9218 2.33549 3.79443 
6.16306 2.99731 1.11953 
4.28616 4.2237 5.62842 
3.50645 4.36791 1.06288 
2.21585 2.31476 3.05671 
1.08905 1.16577 1.13889 
2.29903 1.36826 5.72132 
5.765 2.00685 1.07525 
1.49725 0.294102 4.05447 
2.84581 4.97639 1.79802 
3.29632 2.21245 2.80315 
3.84938 5.13738 5.3835 
0.956409 2.54264 2.76307 
3.29296 4.2983 5.07568 
4.00279 1.91409 1.92256 
2.09059 1.26065 3.87033 
0.974776 5.61493 1.53063 
2.80085 2.37961 5.62556 
5.82725 4.79383 4.4688 
6.33965 4.70782 1.16541 
4.83545 4.87936 2.70532 
2.42903 6.23264 5.1791 
3.91524 3.36648 0.107231 
6.19945 0.141314 5.18609 
0.900587 0.21009 3.18807 
5.65322 2.27202 2.95848 
5.43014 0.114719 0.856141 
4.08881 0.243205 2.55878 
5.73051 3.03858 3.75767 
4.97322 2.26558 5.66057 
6.29003 2.26325 2.0579 
0.016184 4.77507 0.042929 
4.83512 5.04252 4.93694 
0.543996 3.77672 0.990666 
1.19703 4.90304 4.64277 
6.20131 0.3837 3.03555 
3.67125 5.39851 1.23047 
5.46311 1.41325 5.34652 
2.8796 5.55703 3.70978 
0.0287959 3.11534 2.8225 
1.37328 3.09575 5.9784 
5.74586 5.19732 5.50712 
0.795257 3.168 3.70274 
0.202945 5.68438 3.15663 
2.40662 0.541903 2.07122 
