ITEM: TIMESTEP
59
ITEM: NUMBER OF ATOMS
256
ITEM: BOX BOUNDS
0 6.3454
0 6.3454
0 6.3454
ITEM: ATOMS fx fy fz 
-0.00151747 9.02459e-05 -0.00195188 
0.00131937 -0.000253622 0.00107173 
0.000116372 0.000629265 0.000602759 
0.00109482 -0.00085831 0.000312862 
0.00041467 0.0014324 0.00144624 
0.00077353 0.00109468 -0.00148402 
-0.00027799 -0.000239941 0.00066757 
-0.00113416 -0.000199344 -0.000498751 
-0.0016739 -0.000349782 -0.000913783 
-0.000136344 0.000879284 -0.000310264 
-0.00121268 -0.00122752 0.00104971 
0.000491078 0.000432967 -0.00274201 
-0.000946026 -0.000244651 0.00124579 
-0.000726134 -0.000751319 -0.000754118 
0.00131942 -0.000299169 0.00198449 
-0.000412133 -0.0013926 0.000362395 
-0.00063566 -3.78411e-05 -5.28709e-05 
0.00045356 -0.000671487 -0.000422356 
-0.000621793 -0.000430373 0.000283872 
-0.00263089 -0.000593102 0.000917597 
-0.00107558 -0.00162737 0.00266368 
-0.000501377 0.00129503 0.00172452 
0.00206276 -0.000792688 -0.000165308 
0.0025844 0.00045934 0.00145438 
0.000867592 0.000424177 4.43413e-05 
0.00112062 0.00067436 -0.000585122 
0.000604832 0.000339906 -0.000355304 
5.30763e-05 -0.00181152 0.000162851 
-8.5891e-05 0.00044023 0.000812961 
0.000261114 -0.000587676 -0.000198157 
0.000248645 0.000732598 -2.72643e-05 
0.00360856 0.00147139 -0.00253874 
-0.00365238 -0.00294241 0.00361214 
-4.42693e-05 -6.95523e-05 -0.00116757 
-0.00075259 0.0010877 -0.000838148 
-0.000366155 -0.00110761 0.00151772 
-0.000311173 -0.000859179 0.00117297 
0.000242587 -0.000762746 -0.00169488 
0.00144967 0.000531196 0.000832646 
0.00135441 8.17065e-05 0.000665092 
0.000387367 0.000989966 -0.000519194 
-0.000200833 -0.000885541 0.000429984 
-0.00131556 0.00263335 0.00357846 
-0.0023833 -0.000849903 -0.00146376 
0.00133046 0.000280449 -0.000776528 
-0.00062962 -0.00152554 -0.00148268 
-0.000270509 0.00172532 -0.000388787 
0.00154977 -0.000166081 0.00052022 
0.00220171 0.00062857 0.00154438 
-0.00107589 0.000845739 -0.00119018 
0.00101153 -0.00200644 -0.000509729 
0.00129741 -0.000564382 0.000190234 
-0.000444566 0.000648308 0.000482651 
0.00100458 0.001103 -0.00118627 
0.000340134 -0.000441036 0.000843498 
-0.00225715 -0.00104914 0.00187432 
0.000433791 -0.0012218 -0.000169968 
-0.00129979 -0.00113236 3.20502e-05 
-0.00206086 0.000839216 -0.000171344 
0.000779261 -3.60662e-05 -0.000842163 
-0.000951257 0.000273478 0.00121825 
-0.000737888 -0.000133466 -0.000208338 
-0.00150277 -1.78078e-05 0.000651225 
0.000209566 0.00181823 0.0012064 
-0.000318973 0.00212703 -0.000530526 
2.03147e-05 -0.0125788 -0.00145132 
-0.000281226 -0.000664734 0.000936156 
0.00139915 -0.000744694 0.000209761 
-0.000607438 0.00169764 -0.000315636 
-0.00241815 0.000630041 -0.000102995 
0.00138179 -0.000817235 -0.000458635 
4.99998e-05 0.00199567 -0.000749285 
-0.000616686 -0.00020827 0.00088425 
-1.63337e-05 0.000893123 -0.000668304 
0.000743606 0.00288949 0.000127585 
0.000659769 0.00123666 -0.00036693 
-0.000217732 -0.000358024 -0.000320607 
2.47142e-05 -0.000380667 -0.0023233 
0.000895518 0.00024697 0.00194037 
-0.000466234 0.000865386 0.000389325 
-0.00153906 -2.00886e-05 0.000586412 
-0.00021387 -0.000255187 0.000323097 
-0.00116308 0.000433817 0.000885181 
0.00418364 0.00652344 -0.00839435 
0.00028846 0.00172631 -0.000808886 
-0.000394055 0.000771948 -0.000668123 
-0.00143579 0.000418918 0.00317899 
0.000295809 -0.000612051 0.000514894 
-0.000220377 0.000150236 -0.000109386 
0.00210779 -0.000412675 -0.000177545 
-0.0015498 -0.000417202 -0.000721913 
0.000237843 0.00047514 -0.000238046 
0.000745977 -0.00102248 0.00141842 
-0.000869267 0.000582632 -0.00136157 
-0.00124676 0.000694647 0.00104126 
0.00160167 0.000210347 6.17104e-05 
-0.00192154 -0.000268424 -9.08578e-05 
-0.00111872 0.000322244 -0.00280618 
-0.00140126 -0.000766221 0.000852027 
-0.000100501 -0.000684724 -0.000361631 
-6.65193e-06 -0.000515627 0.000252107 
-0.00274377 0.000912066 0.00074885 
-7.2494e-05 0.000731073 -0.00133938 
-0.00107265 0.00207368 0.000762313 
0.00106975 0.000203699 0.000340313 
0.000989931 0.000964834 0.000929362 
0.000326481 8.95216e-05 0.000900059 
-0.000328723 -0.00091048 -0.000324129 
0.000318573 -0.00257519 0.000947174 
0.000173761 0.000417097 -0.000188077 
-0.000170045 -0.000893356 8.94611e-06 
0.000660679 -0.00107017 0.0019132 
0.000403268 0.000262027 0.00117225 
-0.000546369 -0.000432311 -7.22941e-05 
0.001265 0.00330668 0.00196798 
0.00016234 -0.000391974 -0.000737634 
-0.000407129 -0.000398267 0.00064613 
-0.000298996 -0.000772113 -0.000213386 
0.000291508 -0.00126568 -0.000607741 
6.73199e-06 -0.000877027 -0.000564278 
0.000430848 -0.00171714 -0.000271359 
-0.000938303 0.000659107 -0.000215937 
-0.00140158 0.000216685 -0.00179378 
-0.00075875 0.000236388 -0.00288577 
0.000621404 -0.000634994 -0.000505134 
0.00032808 -0.000572891 0.000647959 
0.00150471 0.0014891 0.000420382 
-0.00159805 0.001828 -0.000746166 
0.000955644 -0.0015461 -0.00120865 
-0.00111446 -8.36967e-05 -0.000111813 
0.00114338 0.000979674 0.00033221 
0.00052379 -0.000959404 0.000560311 
-0.00183112 0.000378707 0.000702787 
0.000774242 -0.000960974 -0.00168614 
0.00110886 0.00120145 0.00108827 
0.00101648 -0.00107268 -0.000363522 
-0.00161397 -0.000436582 -0.00148911 
-2.85246e-05 0.000330524 -0.000477899 
-0.000115027 -0.00140947 -0.000536695 
-0.000437721 -6.05081e-05 -0.00139256 
-0.000132326 0.00148862 0.00146948 
0.000478792 0.00136839 0.00022726 
0.000704225 -0.000607179 0.00164251 
-0.000821056 -0.000251439 -0.0013116 
0.000868608 -0.000298273 0.00166162 
0.000147903 0.00147862 -0.000586302 
0.00115407 -0.00109312 -0.00160305 
-0.000641149 0.000302624 0.00109413 
8.95388e-05 -0.00028074 -0.000749215 
-0.00133942 -0.000684675 0.00111262 
-0.00222075 -0.00015187 -0.000116296 
0.00105538 -0.000382465 0.000745259 
0.0019508 -0.000522432 0.000695145 
-0.00127358 0.000381968 0.000594846 
1.84291e-05 0.000691541 -0.00183085 
-0.000314852 -0.00149678 -0.000392805 
0.00280704 -0.000124538 -0.00211997 
-0.000723682 0.00207032 -0.00030411 
0.00284119 -0.00188718 0.0015534 
0.00113352 -0.000797719 -0.000797899 
0.000632282 0.000829172 0.000543516 
-0.000268487 0.000639247 0.000796725 
0.000120272 -0.000186799 0.000868364 
7.99212e-05 -0.000284914 0.00123333 
0.000259392 -0.000273795 0.00190983 
-0.0002422 -0.000380409 -0.000609626 
0.000582173 -0.000321136 0.0013987 
-0.00157509 5.89428e-05 -0.000948244 
-0.000827257 0.00115498 0.000419139 
2.71784e-05 -0.00179029 0.0010168 
-0.0012222 0.000116311 -0.000694908 
0.000551204 -0.00189982 0.000826548 
0.000258608 -0.000983465 -0.00102152 
-0.00172009 0.000138932 0.000442437 
-0.000159358 0.00128154 -0.00146572 
-0.0013581 -0.00115451 0.00142497 
-7.4047e-05 -0.000485922 -0.000133747 
0.000651146 -0.0010895 0.00105145 
0.00204011 -0.000301299 -0.00133423 
-0.000173524 0.00157766 0.000801313 
0.00110669 -0.00138246 -0.000569239 
-0.000762828 0.0001491 -0.00138477 
0.00020955 -0.00145758 0.0010772 
-0.00322768 -0.00139224 -0.00277284 
-0.000340248 -0.000391003 -0.000143017 
-0.00145974 -0.00116558 -0.0011372 
0.000935511 9.59597e-05 -0.00231621 
0.000744342 -0.000583129 -0.00142661 
0.000326482 -0.00166938 -0.000290379 
0.000132654 0.000463803 -0.0011664 
0.00156094 0.00176449 0.00152591 
0.00309195 -0.000855166 0.00230621 
-0.00347676 0.00290652 0.000433755 
0.0013048 -0.000463042 0.000196366 
-0.00102816 0.00235076 -0.00508553 
-0.000120643 -0.00079457 -0.000653899 
0.00126721 -0.000747616 -0.00133668 
0.000573317 1.77338e-05 0.000914543 
0.000297654 0.000319676 -0.000297954 
0.000952501 -0.000701551 0.000274468 
0.00159071 0.000617188 0.000436448 
0.000237938 -0.000832102 2.75009e-05 
-0.00101552 1.7323e-05 -0.000985673 
0.00083337 0.000873599 0.00162372 
-0.00122543 -0.000172688 -3.18744e-05 
-0.000115627 -0.000151955 0.000819433 
-0.00220888 -0.00404872 0.0043599 
0.00121784 0.00058282 -0.000490568 
0.000470885 7.3263e-05 0.000681001 
-4.85481e-05 -0.00200381 -0.0018066 
0.00207251 -0.000118053 0.00173139 
0.00140925 6.00531e-05 -0.000771553 
4.17346e-05 0.00113811 -0.00141286 
0.00130704 -0.00149993 -0.000312241 
-0.000765237 0.0011117 -0.000941229 
-0.000921934 -0.000686848 -0.00132654 
0.00157199 0.000366623 0.00115367 
0.00180896 5.97817e-05 0.000357833 
-0.000428764 0.00123938 0.000807962 
-0.000305591 0.000400679 -0.000845268 
0.00046096 0.000426619 0.00156077 
-0.000656264 0.000124562 -0.000718469 
-0.00288546 0.00354939 0.00182132 
0.000511171 0.00101198 -2.3475e-05 
-0.000338362 -0.00137629 -0.00145876 
-0.00146095 -0.000140402 -2.04832e-05 
-0.000659581 0.000483178 0.000654787 
-0.00025511 -0.00111131 0.000371375 
-0.000372244 0.00126536 0.000506991 
0.000565617 -0.000634066 0.000946631 
-0.000898293 0.000337357 0.000225455 
0.000892701 0.00149496 -0.000225181 
0.00145319 -0.00225944 -6.3614e-05 
0.000116552 -0.00107685 -0.000426706 
0.000177909 0.0010016 -0.0012362 
-0.000322089 0.00219991 0.00142533 
0.00017397 0.000482892 0.000101182 
-0.00066865 0.00264824 0.000109922 
-0.00177826 -0.00149042 -0.000191139 
0.000948225 0.00012609 -0.000140837 
-0.000333715 0.00405625 0.000920685 
0.00179125 -0.000199532 -3.81075e-05 
-0.000501829 0.000641095 -0.000824927 
-0.00129456 6.67661e-05 -0.000879374 
-0.000397203 -0.00056722 0.000692753 
-1.01126e-05 -0.000692821 -0.00115865 
0.00108721 0.0014017 -0.000445335 
0.00103774 0.000892847 0.00172969 
0.000967719 -0.00133572 -0.00135764 
0.00127878 0.000989255 -0.00139961 
0.000402087 -0.000920492 -0.000703215 
0.001493 0.00200938 0.000999388 
-0.0025646 0.00011083 -0.000690315 
-0.0011046 0.000827665 0.00145161 
-0.000745224 -0.000177863 0.000905634 
0.000657749 -0.000651814 0.000343986 
ITEM: TIMESTEP
60
ITEM: NUMBER OF ATOMS
256
ITEM: BOX BOUNDS
0 6.3454
0 6.3454
0 6.3454
ITEM: ATOMS fx fy fz 
-0.00151524 9.01188e-05 -0.00194655 
0.00131684 -0.000254174 0.00106776 
0.000117258 0.000629517 0.000599549 
0.00109279 -0.000856356 0.000312184 
0.000413375 0.00143067 0.00144368 
0.000769322 0.00109176 -0.00148321 
-0.000277794 -0.000241816 0.000668315 
-0.00113287 -0.000199257 -0.000497712 
-0.00167224 -0.000347844 -0.000913239 
-0.000133117 0.000876361 -0.000308001 
-0.00121391 -0.00122554 0.00104807 
0.000481727 0.000429507 -0.00273575 
-0.000943256 -0.000244509 0.00124312 
-0.000724405 -0.000748861 -0.000751272 
0.00131633 -0.000296724 0.00198017 
-0.000410054 -0.00138738 0.000361836 
-0.000629533 -2.97678e-05 -5.0646e-05 
0.000447676 -0.000667418 -0.000423083 
-0.000617546 -0.000430202 0.000281979 
-0.00261989 -0.000589254 0.000922221 
-0.00107054 -0.0016217 0.00265716 
-0.000500285 0.00128944 0.00171722 
0.00205625 -0.000792448 -0.000166665 
0.00257992 0.000455271 0.00145146 
0.000861028 0.000417754 3.99411e-05 
0.00111723 0.000672741 -0.000585616 
0.000601052 0.000340063 -0.00035608 
5.36289e-05 -0.00180303 0.000160847 
-8.43396e-05 0.00043821 0.000813014 
0.000263539 -0.000588201 -0.000197478 
0.000248071 0.000728946 -2.59242e-05 
0.0036062 0.00146727 -0.00253231 
-0.00365226 -0.00294131 0.00360899 
-4.25669e-05 -6.64741e-05 -0.00116614 
-0.000751318 0.00108291 -0.000837712 
-0.000365331 -0.00110491 0.00151637 
-0.000309543 -0.000857491 0.00116799 
0.000242165 -0.000760258 -0.00168965 
0.00144781 0.000532812 0.000829169 
0.00133381 8.60268e-05 0.000654681 
0.000386952 0.000986732 -0.000517815 
-0.000199142 -0.000882404 0.000425948 
-0.00131319 0.00262681 0.00356617 
-0.00237807 -0.00084713 -0.00146105 
0.00132679 0.000280257 -0.000775119 
-0.000627098 -0.00152454 -0.00147771 
-0.000268991 0.00172211 -0.000385487 
0.00154551 -0.000166575 0.000517586 
0.00219597 0.000626249 0.00154394 
-0.001071 0.000843893 -0.00118409 
0.00100673 -0.00199272 -0.000508429 
0.00129103 -0.000566359 0.000189748 
-0.00044815 0.000647088 0.000482851 
0.00100116 0.00110168 -0.00117825 
0.00034113 -0.000441498 0.000841049 
-0.00225089 -0.00104499 0.00186911 
0.000432935 -0.00121825 -0.000170641 
-0.00129616 -0.00112945 3.03331e-05 
-0.00203831 0.000835099 -0.000166793 
0.000774931 -3.86743e-05 -0.000838324 
-0.000947747 0.00027219 0.00121647 
-0.000734147 -0.000131672 -0.000210374 
-0.0014988 -1.73704e-05 0.000650376 
0.000207925 0.0018096 0.0012003 
-0.000318379 0.00211989 -0.0005256 
-9.30892e-06 -0.0124743 -0.00142924 
-0.000281719 -0.000660637 0.000931934 
0.0013928 -0.00074421 0.000209411 
-0.000607021 0.00169456 -0.000315635 
-0.00241013 0.000628172 -0.000105402 
0.00137981 -0.000815277 -0.000457598 
5.1692e-05 0.0019883 -0.000748249 
-0.000614349 -0.000207021 0.00088258 
-1.65567e-05 0.000891427 -0.000664894 
0.000742141 0.00288435 0.000118084 
0.000658624 0.00123306 -0.000368173 
-0.000217038 -0.00035929 -0.000322856 
2.40473e-05 -0.000383592 -0.00231609 
0.000893678 0.00024638 0.00193416 
-0.000460069 0.000851205 0.000390408 
-0.00153532 -2.41434e-05 0.000582376 
-0.000213945 -0.000255836 0.000323971 
-0.00115999 0.000431778 0.000881588 
0.00416546 0.00650599 -0.00837339 
0.000290635 0.001727 -0.000807661 
-0.000395978 0.00076866 -0.000665628 
-0.00143013 0.000416933 0.00316715 
0.000302662 -0.00060464 0.000519012 
-0.000220549 0.000147363 -0.000108454 
0.00210358 -0.000412485 -0.000178941 
-0.00154556 -0.000417557 -0.000720563 
0.000231628 0.000467742 -0.000239216 
0.000745699 -0.00102029 0.00141501 
-0.000862098 0.000578875 -0.00135972 
-0.00123939 0.000694027 0.00104142 
0.00160366 0.000205925 6.81672e-05 
-0.00191911 -0.000267534 -8.84995e-05 
-0.00111718 0.000323503 -0.0027931 
-0.00140004 -0.00076381 0.000848893 
-0.000101229 -0.000683786 -0.000360518 
-5.80081e-06 -0.000513654 0.0002526 
-0.00272969 0.00090685 0.00074072 
-7.2105e-05 0.000727962 -0.00133373 
-0.00107188 0.00206523 0.000758173 
0.00106674 0.000202431 0.00033855 
0.000988561 0.000964014 0.000930054 
0.000323868 8.65193e-05 0.000890941 
-0.000328853 -0.000907184 -0.000322466 
0.000317203 -0.00256912 0.000943965 
0.000176562 0.000419635 -0.000186777 
-0.000170074 -0.000888148 9.05716e-06 
0.000658625 -0.00106605 0.00190835 
0.00040079 0.00026112 0.00116992 
-0.000544635 -0.000435679 -7.29503e-05 
0.00125775 0.00329831 0.00196407 
0.000161576 -0.000389322 -0.000734067 
-0.000407139 -0.000394318 0.000641969 
-0.000293906 -0.000769818 -0.000208051 
0.000294974 -0.00126012 -0.000605861 
8.86453e-06 -0.000876646 -0.000564776 
0.00043043 -0.0017069 -0.000265047 
-0.000935515 0.00065858 -0.000214289 
-0.00139315 0.000217139 -0.00178942 
-0.000756855 0.000235431 -0.00287807 
0.000617668 -0.000633162 -0.00050357 
0.000328421 -0.000569048 0.000647566 
0.00150163 0.00148304 0.000417728 
-0.00158671 0.00182301 -0.000741117 
0.000956591 -0.0015436 -0.00120511 
-0.00110773 -8.1016e-05 -0.000108529 
0.0011386 0.000977862 0.000333873 
0.000522468 -0.000958021 0.000557388 
-0.00182247 0.000376718 0.000702689 
0.000772943 -0.000959722 -0.00168287 
0.00110214 0.00119329 0.0010783 
0.001013 -0.00107129 -0.000361715 
-0.00160859 -0.000435612 -0.00148417 
-2.85386e-05 0.000332771 -0.00047172 
-0.000114582 -0.00140914 -0.000534356 
-0.000440902 -5.98772e-05 -0.00139073 
-0.000135996 0.00148443 0.0014703 
0.000477301 0.00137076 0.000224841 
0.00070351 -0.000604848 0.00163456 
-0.000817702 -0.000251543 -0.00131088 
0.000865714 -0.000296736 0.00165773 
0.000147843 0.00147303 -0.000584593 
0.00114927 -0.00109062 -0.00159716 
-0.000638202 0.000303654 0.00109205 
8.78927e-05 -0.000280808 -0.000746993 
-0.00133525 -0.000681279 0.00111339 
-0.00221517 -0.000149298 -0.000115024 
0.00105646 -0.000377448 0.000744463 
0.00194721 -0.000520863 0.000693682 
-0.00126888 0.000382124 0.000592789 
1.85737e-05 0.000689214 -0.00182326 
-0.00031851 -0.00149201 -0.000391151 
0.00279895 -0.000121492 -0.002115 
-0.000720652 0.002065 -0.000303224 
0.0028327 -0.00187929 0.00154773 
0.00113211 -0.000796913 -0.000793712 
0.000628172 0.000824324 0.00054072 
-0.000265462 0.00063703 0.000792468 
0.000118216 -0.000187303 0.000865516 
7.66482e-05 -0.000281236 0.00123143 
0.000259602 -0.000275134 0.00190129 
-0.00023765 -0.000376743 -0.00060993 
0.000581194 -0.00032235 0.00139358 
-0.00157273 6.10036e-05 -0.000946769 
-0.000824165 0.00115293 0.000419118 
2.5696e-05 -0.00178673 0.00101465 
-0.00121796 0.000114464 -0.000693396 
0.000547062 -0.00189005 0.000824956 
0.000261453 -0.000982514 -0.00102017 
-0.00171714 0.000136433 0.000440537 
-0.000161238 0.00127846 -0.00146399 
-0.00135362 -0.00115174 0.00142429 
-7.35062e-05 -0.000484145 -0.000131682 
0.000649513 -0.00108616 0.00104957 
0.00201588 -0.000306022 -0.00133155 
-0.000169286 0.00157821 0.000804355 
0.00110723 -0.00137823 -0.000567561 
-0.000761614 0.000148433 -0.00138044 
0.000210006 -0.00145245 0.00107794 
-0.00320832 -0.0013944 -0.002767 
-0.000339233 -0.000392311 -0.000138812 
-0.00145484 -0.00116037 -0.00113585 
0.000929677 8.97762e-05 -0.00230547 
0.000742559 -0.000581266 -0.00142348 
0.000327293 -0.0016651 -0.000287648 
0.000130287 0.000464321 -0.0011623 
0.00155804 0.0017624 0.00152311 
0.0030816 -0.000851963 0.00230174 
-0.00344252 0.00285764 0.000421079 
0.00130601 -0.000459775 0.000195436 
-0.00103151 0.00234873 -0.00508277 
-0.000120637 -0.000791982 -0.000653468 
0.00125551 -0.000747838 -0.00133242 
0.000571056 2.20455e-05 0.000915003 
0.000298214 0.000318081 -0.000295572 
0.000948769 -0.000700811 0.000271987 
0.00158771 0.000617023 0.00043607 
0.000237968 -0.000827676 2.82358e-05 
-0.00101023 1.81971e-05 -0.000975272 
0.000833922 0.000871189 0.00161904 
-0.00122314 -0.000167031 -2.97706e-05 
-0.000115538 -0.000150889 0.000820631 
-0.00221291 -0.0040497 0.00435284 
0.00121724 0.000578713 -0.000490609 
0.000465305 7.31857e-05 0.000675472 
-4.93165e-05 -0.00200202 -0.00180113 
0.00206889 -0.000120317 0.00172693 
0.00140249 5.72344e-05 -0.00077119 
4.0874e-05 0.00113601 -0.00141047 
0.00129092 -0.00147865 -0.000313907 
-0.000759737 0.00111039 -0.000938344 
-0.000918192 -0.000683062 -0.00132329 
0.00156849 0.000363619 0.00115243 
0.00179423 7.20974e-05 0.000350705 
-0.000424785 0.00123665 0.000807788 
-0.000302838 0.000403694 -0.000841129 
0.000459451 0.000427979 0.00155463 
-0.000654545 0.00012386 -0.000716207 
-0.00285229 0.0034894 0.00180094 
0.000509281 0.00100976 -2.33123e-05 
-0.000330838 -0.00136614 -0.00145388 
-0.00145901 -0.000143437 -2.07919e-05 
-0.000658405 0.000482147 0.000652175 
-0.000253125 -0.00110934 0.000371989 
-0.000374589 0.00126005 0.000506549 
0.000563912 -0.000635814 0.000946574 
-0.000897629 0.000337494 0.000224456 
0.000887868 0.00149125 -0.000228094 
0.00145182 -0.00225094 -6.16809e-05 
0.000111665 -0.00106778 -0.000426324 
0.000174665 0.000999151 -0.00123362 
-0.000322207 0.00219482 0.00141671 
0.000173882 0.000481037 9.92934e-05 
-0.000666732 0.00264293 0.000108387 
-0.00177347 -0.00148657 -0.000193718 
0.000945958 0.000123199 -0.000140183 
-0.000320967 0.00402265 0.000909217 
0.00178941 -0.000198847 -3.6547e-05 
-0.000499884 0.000642041 -0.000823113 
-0.00129638 6.95538e-05 -0.000873391 
-0.000396689 -0.000566032 0.00069052 
-4.48502e-06 -0.000692633 -0.00116244 
0.00108375 0.00139785 -0.000443713 
0.0010323 0.000887278 0.00172421 
0.000951316 -0.00131528 -0.00134599 
0.00127644 0.000986331 -0.00139878 
0.000401865 -0.000919711 -0.00070022 
0.00148987 0.00200477 0.000998007 
-0.00255919 0.000112173 -0.000688649 
-0.00110371 0.000825472 0.00144811 
-0.000743094 -0.000176234 0.000902617 
0.000656364 -0.000651453 0.000342458 
