
256 atoms
1 atom types	

0.0 6.3454 xlo xhi
0.0 6.3454 ylo yhi
0.0 6.3454 zlo zhi

Masses

1 1.0

Atoms				

        1.00000	        1.00000	        0.77458	        0.74142	        4.74820
        2.00000	        1.00000	        2.72030	        2.10580	        1.10980
        3.00000	        1.00000	        1.59180	        0.20661	        1.41280
        4.00000	        1.00000	        5.15160	        2.08290	        2.01450
        5.00000	        1.00000	        1.39540	        3.98940	        5.29660
        6.00000	        1.00000	        2.92070	        5.32130	        4.80730
        7.00000	        1.00000	        1.88200	        4.14190	        2.49530
        8.00000	        1.00000	        4.00570	        3.42850	        4.88940
        9.00000	        1.00000	        5.80280	        4.88450	        3.24500
       10.00000	        1.00000	        0.14857	        1.25300	        1.70850
       11.00000	        1.00000	        0.13491	        0.07735	        4.07500
       12.00000	        1.00000	        1.77510	        0.40141	        5.88560
       13.00000	        1.00000	        5.33250	        6.16370	        5.79400
       14.00000	        1.00000	        0.00887	        3.88970	        3.60950
       15.00000	        1.00000	        2.57710	        3.91290	        1.62590
       16.00000	        1.00000	        0.21764	        2.28190	        3.54230
       17.00000	        1.00000	        3.64650	        3.65640	        3.84990
       18.00000	        1.00000	        5.76670	        2.03350	        4.35520
       19.00000	        1.00000	        3.49890	        5.63920	        2.73910
       20.00000	        1.00000	        1.76020	        2.24550	        5.48250
       21.00000	        1.00000	        1.49440	        3.72840	        1.49510
       22.00000	        1.00000	        3.12710	        4.57750	        4.02650
       23.00000	        1.00000	        5.54520	        3.08190	        2.09920
       24.00000	        1.00000	        1.12820	        2.94320	        0.69599
       25.00000	        1.00000	        4.22980	        4.36700	        4.34790
       26.00000	        1.00000	        4.31830	        3.63500	        1.14950
       27.00000	        1.00000	        5.07240	        2.83650	        1.15390
       28.00000	        1.00000	        3.19720	        3.31880	        0.91566
       29.00000	        1.00000	        0.44837	        6.24950	        2.26000
       30.00000	        1.00000	        3.94320	        2.61100	        1.09490
       31.00000	        1.00000	        3.43110	        6.25500	        4.69850
       32.00000	        1.00000	        1.85740	        4.84010	        3.74630
       33.00000	        1.00000	        0.07937	        4.37010	        5.34960
       34.00000	        1.00000	        6.03810	        3.78020	        0.34424
       35.00000	        1.00000	        1.98680	        5.67310	        4.38420
       36.00000	        1.00000	        1.72660	        3.23260	        3.18530
       37.00000	        1.00000	        3.17460	        2.69900	        1.85940
       38.00000	        1.00000	        2.96940	        1.95860	        3.79830
       39.00000	        1.00000	        6.05480	        1.02100	        0.75045
       40.00000	        1.00000	        1.44860	        1.70660	        4.62890
       41.00000	        1.00000	        4.37780	        2.38460	        4.70950
       42.00000	        1.00000	        4.90140	        5.09690	        3.85540
       43.00000	        1.00000	        2.50890	        5.94870	        1.34680
       44.00000	        1.00000	        4.66320	        0.84821	        0.71026
       45.00000	        1.00000	        3.08260	        0.62399	        1.13960
       46.00000	        1.00000	        1.77780	        2.88560	        2.10470
       47.00000	        1.00000	        1.04040	        1.87760	        1.94350
       48.00000	        1.00000	        1.91190	        5.27130	        5.37770
       49.00000	        1.00000	        2.17090	        3.04030	        1.03830
       50.00000	        1.00000	        3.38600	        6.25250	        1.85970
       51.00000	        1.00000	        4.09650	        1.60720	        3.75250
       52.00000	        1.00000	        4.21290	        1.62440	        0.01814
       53.00000	        1.00000	        1.29620	        5.81030	        6.06010
       54.00000	        1.00000	        2.23940	        0.32769	        0.55081
       55.00000	        1.00000	        2.16060	        2.19490	        0.15552
       56.00000	        1.00000	        0.06224	        0.10567	        0.31276
       57.00000	        1.00000	        5.77250	        1.26130	        2.50200
       58.00000	        1.00000	        5.60970	        3.91140	        2.80540
       59.00000	        1.00000	        0.42714	        1.76840	        4.49380
       60.00000	        1.00000	        2.66280	        3.34840	        2.54730
       61.00000	        1.00000	        0.29876	        4.42290	        2.75440
       62.00000	        1.00000	        4.41110	        6.02880	        5.20450
       63.00000	        1.00000	        2.55840	        0.19457	        4.05470
       64.00000	        1.00000	        4.64850	        5.48850	        0.67573
       65.00000	        1.00000	        1.31450	        2.20990	        3.71290
       66.00000	        1.00000	        3.34710	        5.97220	        5.74110
       67.00000	        1.00000	        3.70490	        0.71667	        0.24619
       68.00000	        1.00000	        2.51960	        5.87780	        2.42840
       69.00000	        1.00000	        3.89630	        2.49160	        5.66160
       70.00000	        1.00000	        3.84550	        4.71650	        2.20480
       71.00000	        1.00000	        5.53990	        5.84780	        4.65480
       72.00000	        1.00000	        5.00040	        3.57720	        0.33069
       73.00000	        1.00000	        0.60590	        1.09900	        0.17667
       74.00000	        1.00000	        5.61490	        4.63640	        2.00610
       75.00000	        1.00000	        3.20410	        6.13040	        0.47449
       76.00000	        1.00000	        5.34650	        4.31150	        5.95030
       77.00000	        1.00000	        4.68280	        1.17990	        2.38210
       78.00000	        1.00000	        5.32790	        1.11890	        1.51980
       79.00000	        1.00000	        0.44622	        1.51290	        2.76530
       80.00000	        1.00000	        3.86490	        2.61820	        3.77520
       81.00000	        1.00000	        1.89570	        0.78173	        4.89000
       82.00000	        1.00000	        0.90616	        4.54550	        1.82880
       83.00000	        1.00000	        4.92130	        3.09380	        2.99630
       84.00000	        1.00000	        2.76240	        5.15930	        0.63132
       85.00000	        1.00000	        0.67920	        3.92990	        6.22710
       86.00000	        1.00000	        1.23000	        1.30600	        5.61810
       87.00000	        1.00000	        4.10480	        0.71696	        4.50680
       88.00000	        1.00000	        1.61770	        3.82830	        0.38541
       89.00000	        1.00000	        5.82460	        3.40210	        5.66860
       90.00000	        1.00000	        2.16080	        1.16940	        1.24470
       91.00000	        1.00000	        3.27700	        0.92638	        3.81860
       92.00000	        1.00000	        2.89510	        3.00370	        3.51500
       93.00000	        1.00000	        5.31600	        2.91100	        4.80220
       94.00000	        1.00000	        5.05140	        3.97920	        4.92240
       95.00000	        1.00000	        0.18654	        1.32780	        5.47790
       96.00000	        1.00000	        3.73100	        5.25300	        0.12728
       97.00000	        1.00000	        2.16320	        3.18780	        5.19640
       98.00000	        1.00000	        0.23892	        5.72520	        5.85160
       99.00000	        1.00000	        1.87690	        4.84010	        0.02904
      100.00000	        1.00000	        5.31530	        4.09910	        3.83730
      101.00000	        1.00000	        0.48890	        2.07720	        0.99373
      102.00000	        1.00000	        2.34800	        5.86730	        6.21470
      103.00000	        1.00000	        4.43410	        4.01830	        3.21350
      104.00000	        1.00000	        0.99308	        5.71530	        3.92620
      105.00000	        1.00000	        2.63630	        1.33040	        2.91400
      106.00000	        1.00000	        1.12970	        4.14910	        3.40640
      107.00000	        1.00000	        5.58830	        5.89080	        3.57780
      108.00000	        1.00000	        1.11520	        5.15210	        2.91950
      109.00000	        1.00000	        2.76950	        3.60560	        4.43730
      110.00000	        1.00000	        3.69120	        6.22970	        3.65650
      111.00000	        1.00000	        3.91320	        5.38440	        4.33460
      112.00000	        1.00000	        4.65130	        3.32420	        4.05530
      113.00000	        1.00000	        2.37320	        4.08590	        5.76010
      114.00000	        1.00000	        5.10830	        0.47797	        4.95160
      115.00000	        1.00000	        2.59800	        4.11410	        0.53783
      116.00000	        1.00000	        1.20460	        6.09400	        5.00610
      117.00000	        1.00000	        2.17070	        2.65700	        4.20580
      118.00000	        1.00000	        4.37700	        1.45560	        5.30450
      119.00000	        1.00000	        3.36140	        1.48300	        5.75110
      120.00000	        1.00000	        3.33230	        4.13320	        2.93110
      121.00000	        1.00000	        2.78750	        1.32950	        0.34371
      122.00000	        1.00000	        0.70372	        0.35642	        5.77850
      123.00000	        1.00000	        5.27490	        5.53260	        1.50840
      124.00000	        1.00000	        5.57860	        5.72190	        2.51310
      125.00000	        1.00000	        3.92810	        4.93220	        3.37450
      126.00000	        1.00000	        0.13629	        5.25040	        2.13680
      127.00000	        1.00000	        1.16020	        0.23348	        0.43848
      128.00000	        1.00000	        2.50170	        1.79560	        4.76150
      129.00000	        1.00000	        3.59890	        3.69350	        1.94160
      130.00000	        1.00000	        5.41340	        0.53258	        3.87430
      131.00000	        1.00000	        1.70310	        3.68100	        4.22180
      132.00000	        1.00000	        4.71410	        3.91400	        2.16850
      133.00000	        1.00000	        0.70560	        2.27910	        5.43440
      134.00000	        1.00000	        5.17740	        0.33612	        2.80470
      135.00000	        1.00000	        6.04670	        0.98299	        4.58010
      136.00000	        1.00000	        4.58810	        4.68390	        1.41940
      137.00000	        1.00000	        4.41690	        2.90110	        2.01910
      138.00000	        1.00000	        2.47910	        3.18440	        0.00000
      139.00000	        1.00000	        3.22530	        2.67850	        4.66470
      140.00000	        1.00000	        4.36660	        4.42920	        0.36256
      141.00000	        1.00000	        6.23950	        5.80430	        1.24820
      142.00000	        1.00000	        4.72720	        3.27230	        5.69100
      143.00000	        1.00000	        3.80730	        3.16430	        2.85870
      144.00000	        1.00000	        3.70580	        1.21860	        2.80880
      145.00000	        1.00000	        0.01290	        3.79640	        1.92180
      146.00000	        1.00000	        1.94780	        0.51852	        3.06920
      147.00000	        1.00000	        4.64790	        6.15890	        4.16040
      148.00000	        1.00000	        5.89380	        0.29705	        1.90310
      149.00000	        1.00000	        4.84520	        0.19433	        1.77460
      150.00000	        1.00000	        1.00130	        4.66210	        0.66334
      151.00000	        1.00000	        0.39570	        4.84970	        3.84620
      152.00000	        1.00000	        0.49026	        0.31751	        1.28030
      153.00000	        1.00000	        2.23150	        4.48900	        4.72200
      154.00000	        1.00000	        1.22500	        2.83520	        4.68510
      155.00000	        1.00000	        4.40790	        2.15590	        2.86910
      156.00000	        1.00000	        6.01200	        3.71920	        4.61140
      157.00000	        1.00000	        1.90220	        5.83160	        3.32370
      158.00000	        1.00000	        5.43790	        3.83660	        1.31070
      159.00000	        1.00000	        4.28610	        6.19110	        6.28760
      160.00000	        1.00000	        2.42200	        3.98030	        3.46470
      161.00000	        1.00000	        3.21250	        3.36550	        5.58870
      162.00000	        1.00000	        0.61128	        5.59540	        0.50549
      163.00000	        1.00000	        0.15546	        2.79670	        4.50830
      164.00000	        1.00000	        5.61940	        2.70760	        0.16493
      165.00000	        1.00000	        3.64370	        1.57020	        0.93860
      166.00000	        1.00000	        5.10660	        1.41100	        3.32140
      167.00000	        1.00000	        3.31610	        2.37970	        0.23141
      168.00000	        1.00000	        2.96170	        0.82878	        4.93080
      169.00000	        1.00000	        1.07800	        2.07790	        0.06571
      170.00000	        1.00000	        6.13960	        1.31100	        3.58590
      171.00000	        1.00000	        4.57080	        5.83040	        3.12650
      172.00000	        1.00000	        4.67960	        1.84190	        1.05840
      173.00000	        1.00000	        2.57600	        4.91070	        2.89290
      174.00000	        1.00000	        4.75720	        5.22470	        5.99760
      175.00000	        1.00000	        5.38660	        4.66300	        0.64328
      176.00000	        1.00000	        0.69228	        3.96370	        4.45670
      177.00000	        1.00000	        4.10080	        0.00000	        1.02200
      178.00000	        1.00000	        1.80660	        5.15010	        2.09470
      179.00000	        1.00000	        2.84930	        5.03000	        5.83660
      180.00000	        1.00000	        0.31430	        2.91040	        6.32910
      181.00000	        1.00000	        1.62470	        2.09570	        1.08330
      182.00000	        1.00000	        4.35200	        5.64320	        2.04770
      183.00000	        1.00000	        0.50347	        3.35060	        5.34040
      184.00000	        1.00000	        3.40080	        4.24510	        6.22580
      185.00000	        1.00000	        5.86210	        0.75196	        6.06330
      186.00000	        1.00000	        1.69580	        1.21510	        0.26262
      187.00000	        1.00000	        4.40220	        0.63729	        3.48130
      188.00000	        1.00000	        3.04210	        0.31833	        2.93260
      189.00000	        1.00000	        3.99940	        0.85830	        1.64970
      190.00000	        1.00000	        0.74015	        2.91160	        1.70360
      191.00000	        1.00000	        6.29930	        1.89690	        0.03266
      192.00000	        1.00000	        1.69450	        5.65410	        0.72411
      193.00000	        1.00000	        2.84030	        0.50378	        5.99790
      194.00000	        1.00000	        1.93720	        4.67600	        1.16530
      195.00000	        1.00000	        0.94123	        4.86930	        5.75560
      196.00000	        1.00000	        4.79440	        0.75157	        5.99040
      197.00000	        1.00000	        6.01320	        2.36080	        5.42390
      198.00000	        1.00000	        5.72360	        5.59710	        0.26651
      199.00000	        1.00000	        1.48880	        6.12990	        2.38260
      200.00000	        1.00000	        4.93530	        1.38900	        4.38590
      201.00000	        1.00000	        1.09230	        0.79415	        2.19560
      202.00000	        1.00000	        1.52680	        1.50900	        2.89230
      203.00000	        1.00000	        4.57200	        2.57220	        0.24268
      204.00000	        1.00000	        5.27970	        1.60970	        0.15422
      205.00000	        1.00000	        0.90838	        1.16930	        3.73020
      206.00000	        1.00000	        0.95402	        3.60360	        2.48470
      207.00000	        1.00000	        3.84170	        0.54513	        5.52890
      208.00000	        1.00000	        2.14040	        1.87940	        2.05850
      209.00000	        1.00000	        3.56300	        1.66810	        4.67230
      210.00000	        1.00000	        3.07530	        1.39670	        1.90680
      211.00000	        1.00000	        0.26681	        5.50750	        4.77540
      212.00000	        1.00000	        4.92310	        2.33570	        3.79550
      213.00000	        1.00000	        6.16450	        2.99450	        1.11980
      214.00000	        1.00000	        4.28650	        4.22570	        5.63070
      215.00000	        1.00000	        3.50620	        4.36690	        1.06370
      216.00000	        1.00000	        2.21640	        2.31440	        3.05490
      217.00000	        1.00000	        1.08770	        1.16320	        1.13890
      218.00000	        1.00000	        2.29900	        1.36840	        5.72060
      219.00000	        1.00000	        5.76510	        2.00390	        1.07640
      220.00000	        1.00000	        1.49620	        0.29427	        4.05460
      221.00000	        1.00000	        2.84870	        4.97450	        1.80200
      222.00000	        1.00000	        3.29570	        2.21380	        2.80050
      223.00000	        1.00000	        3.85030	        5.13860	        5.38010
      224.00000	        1.00000	        0.95582	        2.54010	        2.76160
      225.00000	        1.00000	        3.29410	        4.29850	        5.07330
      226.00000	        1.00000	        3.99970	        1.91510	        1.92470
      227.00000	        1.00000	        2.09260	        1.25980	        3.87090
      228.00000	        1.00000	        0.97355	        5.61380	        1.52910
      229.00000	        1.00000	        2.80060	        2.38070	        5.62540
      230.00000	        1.00000	        5.82780	        4.79910	        4.46180
      231.00000	        1.00000	        0.00000	        4.70730	        1.16480
      232.00000	        1.00000	        4.83860	        4.88020	        2.70410
      233.00000	        1.00000	        2.43080	        6.23200	        5.17930
      234.00000	        1.00000	        3.91610	        3.36750	        0.10582
      235.00000	        1.00000	        6.20040	        0.14231	        5.18830
      236.00000	        1.00000	        0.90076	        0.21448	        3.18650
      237.00000	        1.00000	        5.65330	        2.27210	        2.95920
      238.00000	        1.00000	        5.42230	        0.10712	        0.84968
      239.00000	        1.00000	        4.08700	        0.24372	        2.55820
      240.00000	        1.00000	        5.73140	        3.03940	        3.75830
      241.00000	        1.00000	        4.97270	        2.26780	        5.66270
      242.00000	        1.00000	        6.29210	        2.26060	        2.05980
      243.00000	        1.00000	        0.01485	        4.77070	        0.03954
      244.00000	        1.00000	        4.83570	        5.04830	        4.93290
      245.00000	        1.00000	        0.54677	        3.77530	        0.99091
      246.00000	        1.00000	        1.19080	        4.90660	        4.65070
      247.00000	        1.00000	        6.20210	        0.38659	        3.03400
      248.00000	        1.00000	        3.67300	        5.39690	        1.23130
      249.00000	        1.00000	        5.46460	        1.41820	        5.34610
      250.00000	        1.00000	        2.87920	        5.55760	        3.70800
      251.00000	        1.00000	        0.02955	        3.11530	        2.82280
      252.00000	        1.00000	        1.37310	        3.09420	        5.97580
      253.00000	        1.00000	        5.74570	        5.19790	        5.50320
      254.00000	        1.00000	        0.79385	        3.16710	        3.70150
      255.00000	        1.00000	        0.20487	        5.68660	        3.15620
      256.00000	        1.00000	        2.40200	        0.54294	        2.07260
