ITEM: TIMESTEP
0
ITEM: NUMBER OF ATOMS
256
ITEM: BOX BOUNDS
0 6.3454
0 6.3454
0 6.3454
ITEM: ATOMS x y z 
0.77458 0.74142 4.7482 
2.7203 2.1058 1.1098 
1.5918 0.20661 1.4128 
5.1516 2.0829 2.0145 
1.3954 3.9894 5.2966 
2.9207 5.3213 4.8073 
1.882 4.1419 2.4953 
4.0057 3.4285 4.8894 
5.8028 4.8845 3.245 
0.14857 1.253 1.7085 
0.13491 0.07735 4.075 
1.7751 0.40141 5.8856 
5.3325 6.1637 5.794 
0.00887 3.8897 3.6095 
2.5771 3.9129 1.6259 
0.21764 2.2819 3.5423 
3.6465 3.6564 3.8499 
5.7667 2.0335 4.3552 
3.4989 5.6392 2.7391 
1.7602 2.2455 5.4825 
1.4944 3.7284 1.4951 
3.1271 4.5775 4.0265 
5.5452 3.0819 2.0992 
1.1282 2.9432 0.69599 
4.2298 4.367 4.3479 
4.3183 3.635 1.1495 
5.0724 2.8365 1.1539 
3.1972 3.3188 0.91566 
0.44837 6.2495 2.26 
3.9432 2.611 1.0949 
3.4311 6.255 4.6985 
1.8574 4.8401 3.7463 
0.07937 4.3701 5.3496 
6.0381 3.7802 0.34424 
1.9868 5.6731 4.3842 
1.7266 3.2326 3.1853 
3.1746 2.699 1.8594 
2.9694 1.9586 3.7983 
6.0548 1.021 0.75045 
1.4486 1.7066 4.6289 
4.3778 2.3846 4.7095 
4.9014 5.0969 3.8554 
2.5089 5.9487 1.3468 
4.6632 0.84821 0.71026 
3.0826 0.62399 1.1396 
1.7778 2.8856 2.1047 
1.0404 1.8776 1.9435 
1.9119 5.2713 5.3777 
2.1709 3.0403 1.0383 
3.386 6.2525 1.8597 
4.0965 1.6072 3.7525 
4.2129 1.6244 0.01814 
1.2962 5.8103 6.0601 
2.2394 0.32769 0.55081 
2.1606 2.1949 0.15552 
0.06224 0.10567 0.31276 
5.7725 1.2613 2.502 
5.6097 3.9114 2.8054 
0.42714 1.7684 4.4938 
2.6628 3.3484 2.5473 
0.29876 4.4229 2.7544 
4.4111 6.0288 5.2045 
2.5584 0.19457 4.0547 
4.6485 5.4885 0.67573 
1.3145 2.2099 3.7129 
3.3471 5.9722 5.7411 
3.7049 0.71667 0.24619 
2.5196 5.8778 2.4284 
3.8963 2.4916 5.6616 
3.8455 4.7165 2.2048 
5.5399 5.8478 4.6548 
5.0004 3.5772 0.33069 
0.6059 1.099 0.17667 
5.6149 4.6364 2.0061 
3.2041 6.1304 0.47449 
5.3465 4.3115 5.9503 
4.6828 1.1799 2.3821 
5.3279 1.1189 1.5198 
0.44622 1.5129 2.7653 
3.8649 2.6182 3.7752 
1.8957 0.78173 4.89 
0.90616 4.5455 1.8288 
4.9213 3.0938 2.9963 
2.7624 5.1593 0.63132 
0.6792 3.9299 6.2271 
1.23 1.306 5.6181 
4.1048 0.71696 4.5068 
1.6177 3.8283 0.38541 
5.8246 3.4021 5.6686 
2.1608 1.1694 1.2447 
3.277 0.92638 3.8186 
2.8951 3.0037 3.515 
5.316 2.911 4.8022 
5.0514 3.9792 4.9224 
0.18654 1.3278 5.4779 
3.731 5.253 0.12728 
2.1632 3.1878 5.1964 
0.23892 5.7252 5.8516 
1.8769 4.8401 0.02904 
5.3153 4.0991 3.8373 
0.4889 2.0772 0.99373 
2.348 5.8673 6.2147 
4.4341 4.0183 3.2135 
0.99308 5.7153 3.9262 
2.6363 1.3304 2.914 
1.1297 4.1491 3.4064 
5.5883 5.8908 3.5778 
1.1152 5.1521 2.9195 
2.7695 3.6056 4.4373 
3.6912 6.2297 3.6565 
3.9132 5.3844 4.3346 
4.6513 3.3242 4.0553 
2.3732 4.0859 5.7601 
5.1083 0.47797 4.9516 
2.598 4.1141 0.53783 
1.2046 6.094 5.0061 
2.1707 2.657 4.2058 
4.377 1.4556 5.3045 
3.3614 1.483 5.7511 
3.3323 4.1332 2.9311 
2.7875 1.3295 0.34371 
0.70372 0.35642 5.7785 
5.2749 5.5326 1.5084 
5.5786 5.7219 2.5131 
3.9281 4.9322 3.3745 
0.13629 5.2504 2.1368 
1.1602 0.23348 0.43848 
2.5017 1.7956 4.7615 
3.5989 3.6935 1.9416 
5.4134 0.53258 3.8743 
1.7031 3.681 4.2218 
4.7141 3.914 2.1685 
0.7056 2.2791 5.4344 
5.1774 0.33612 2.8047 
6.0467 0.98299 4.5801 
4.5881 4.6839 1.4194 
4.4169 2.9011 2.0191 
2.4791 3.1844 0 
3.2253 2.6785 4.6647 
4.3666 4.4292 0.36256 
6.2395 5.8043 1.2482 
4.7272 3.2723 5.691 
3.8073 3.1643 2.8587 
3.7058 1.2186 2.8088 
0.0129 3.7964 1.9218 
1.9478 0.51852 3.0692 
4.6479 6.1589 4.1604 
5.8938 0.29705 1.9031 
4.8452 0.19433 1.7746 
1.0013 4.6621 0.66334 
0.3957 4.8497 3.8462 
0.49026 0.31751 1.2803 
2.2315 4.489 4.722 
1.225 2.8352 4.6851 
4.4079 2.1559 2.8691 
6.012 3.7192 4.6114 
1.9022 5.8316 3.3237 
5.4379 3.8366 1.3107 
4.2861 6.1911 6.2876 
2.422 3.9803 3.4647 
3.2125 3.3655 5.5887 
0.61128 5.5954 0.50549 
0.15546 2.7967 4.5083 
5.6194 2.7076 0.16493 
3.6437 1.5702 0.9386 
5.1066 1.411 3.3214 
3.3161 2.3797 0.23141 
2.9617 0.82878 4.9308 
1.078 2.0779 0.06571 
6.1396 1.311 3.5859 
4.5708 5.8304 3.1265 
4.6796 1.8419 1.0584 
2.576 4.9107 2.8929 
4.7572 5.2247 5.9976 
5.3866 4.663 0.64328 
0.69228 3.9637 4.4567 
4.1008 0 1.022 
1.8066 5.1501 2.0947 
2.8493 5.03 5.8366 
0.3143 2.9104 6.3291 
1.6247 2.0957 1.0833 
4.352 5.6432 2.0477 
0.50347 3.3506 5.3404 
3.4008 4.2451 6.2258 
5.8621 0.75196 6.0633 
1.6958 1.2151 0.26262 
4.4022 0.63729 3.4813 
3.0421 0.31833 2.9326 
3.9994 0.8583 1.6497 
0.74015 2.9116 1.7036 
6.2993 1.8969 0.03266 
1.6945 5.6541 0.72411 
2.8403 0.50378 5.9979 
1.9372 4.676 1.1653 
0.94123 4.8693 5.7556 
4.7944 0.75157 5.9904 
6.0132 2.3608 5.4239 
5.7236 5.5971 0.26651 
1.4888 6.1299 2.3826 
4.9353 1.389 4.3859 
1.0923 0.79415 2.1956 
1.5268 1.509 2.8923 
4.572 2.5722 0.24268 
5.2797 1.6097 0.15422 
0.90838 1.1693 3.7302 
0.95402 3.6036 2.4847 
3.8417 0.54513 5.5289 
2.1404 1.8794 2.0585 
3.563 1.6681 4.6723 
3.0753 1.3967 1.9068 
0.26681 5.5075 4.7754 
4.9231 2.3357 3.7955 
6.1645 2.9945 1.1198 
4.2865 4.2257 5.6307 
3.5062 4.3669 1.0637 
2.2164 2.3144 3.0549 
1.0877 1.1632 1.1389 
2.299 1.3684 5.7206 
5.7651 2.0039 1.0764 
1.4962 0.29427 4.0546 
2.8487 4.9745 1.802 
3.2957 2.2138 2.8005 
3.8503 5.1386 5.3801 
0.95582 2.5401 2.7616 
3.2941 4.2985 5.0733 
3.9997 1.9151 1.9247 
2.0926 1.2598 3.8709 
0.97355 5.6138 1.5291 
2.8006 2.3807 5.6254 
5.8278 4.7991 4.4618 
0 4.7073 1.1648 
4.8386 4.8802 2.7041 
2.4308 6.232 5.1793 
3.9161 3.3675 0.10582 
6.2004 0.14231 5.1883 
0.90076 0.21448 3.1865 
5.6533 2.2721 2.9592 
5.4223 0.10712 0.84968 
4.087 0.24372 2.5582 
5.7314 3.0394 3.7583 
4.9727 2.2678 5.6627 
6.2921 2.2606 2.0598 
0.01485 4.7707 0.03954 
4.8357 5.0483 4.9329 
0.54677 3.7753 0.99091 
1.1908 4.9066 4.6507 
6.2021 0.38659 3.034 
3.673 5.3969 1.2313 
5.4646 1.4182 5.3461 
2.8792 5.5576 3.708 
0.02955 3.1153 2.8228 
1.3731 3.0942 5.9758 
5.7457 5.1979 5.5032 
0.79385 3.1671 3.7015 
0.20487 5.6866 3.1562 
2.402 0.54294 2.0726 
ITEM: TIMESTEP
59
ITEM: NUMBER OF ATOMS
256
ITEM: BOX BOUNDS
0 6.3454
0 6.3454
0 6.3454
ITEM: ATOMS x y z 
0.774827 0.74208 4.74753 
2.72307 2.10846 1.10953 
1.59295 0.20988 1.41304 
5.15208 2.08389 2.01316 
1.39557 3.98909 5.29672 
2.92097 5.32176 4.80978 
1.88458 4.13943 2.49795 
4.00325 3.42811 4.88609 
5.80012 4.88414 3.2455 
0.148454 1.25693 1.70741 
0.132975 0.0733784 4.07677 
1.774 0.401566 5.88619 
5.33003 6.16111 5.79127 
0.00881908 3.88866 3.61076 
2.57651 3.91363 1.62545 
0.217399 2.28363 3.54264 
3.64568 3.65572 3.84777 
5.76801 2.03255 4.34874 
3.50116 5.63981 2.73956 
1.76008 2.24602 5.48512 
1.4921 3.73009 1.49678 
3.12937 4.57752 4.02976 
5.54416 3.08464 2.0974 
1.1274 2.94448 0.699439 
4.22932 4.36634 4.34559 
4.31904 3.63556 1.14816 
5.07203 2.83852 1.15232 
3.19676 3.31902 0.917748 
0.448552 6.24667 2.26161 
3.94526 2.61148 1.09239 
3.42978 6.25528 4.69752 
1.86571 4.84037 3.74432 
0.0644325 4.35731 5.36201 
6.03844 3.78112 0.338044 
1.98765 5.67353 4.38365 
1.72807 3.23497 3.18684 
3.18322 2.69742 1.86113 
2.96863 1.95725 3.79944 
6.05806 1.02761 0.747881 
1.44854 1.70855 4.63071 
4.37489 2.38279 4.70765 
4.90221 5.0977 3.85927 
2.511 5.95282 1.34523 
4.66329 0.848767 0.710064 
3.08466 0.624111 1.13853 
1.77579 2.88964 2.10811 
1.04095 1.88143 1.94246 
1.91036 5.27194 5.37661 
2.16955 3.04206 1.03976 
3.38739 6.25332 1.86051 
4.09736 1.60702 3.75216 
4.21469 1.62375 6.3623 
1.29368 5.80939 6.05994 
2.2402 0.329403 0.550531 
2.1635 2.19399 0.155613 
0.0665462 0.110462 0.31839 
5.77316 1.26072 2.50224 
5.60969 3.91069 2.807 
0.427417 1.76701 4.49299 
2.66647 3.34728 2.54711 
0.299091 4.42515 2.75793 
4.40937 6.02625 5.20206 
2.55877 0.195265 4.05454 
4.64503 5.48772 0.676239 
1.31405 2.21041 3.71388 
3.34378 5.97113 5.73924 
3.70565 0.716803 0.244278 
2.52065 5.8765 2.42732 
3.89646 2.48901 5.66064 
3.84436 4.71844 2.19968 
5.53885 5.84234 4.65575 
5.00046 3.57652 0.327705 
0.609251 1.10097 0.175599 
5.61148 4.63596 2.00798 
3.20352 6.13123 0.471653 
5.34536 4.30614 5.94291 
4.68455 1.17988 2.38111 
5.3304 1.11999 1.51858 
0.445599 1.52049 2.76366 
3.86409 2.61744 3.77381 
1.89449 0.782976 4.89061 
0.902471 4.54621 1.82862 
4.92093 3.0927 2.99475 
2.75906 5.16155 0.629979 
0.682327 3.93458 6.22662 
1.23018 1.30648 5.61896 
4.10563 0.71585 4.5064 
1.61744 3.82939 0.390264 
5.82019 3.39246 5.66658 
2.16372 1.17147 1.24465 
3.27916 0.925491 3.81794 
2.895 3.00176 3.51595 
5.31382 2.90611 4.79899 
5.04752 3.97214 4.91872 
0.186116 1.32552 5.47744 
3.72837 5.25183 0.127684 
2.16337 3.18791 5.19784 
0.233982 5.73082 5.85769 
1.87039 4.84086 0.0273217 
5.31496 4.09885 3.83799 
0.489171 2.0801 0.994199 
2.34554 5.86853 6.21383 
4.43432 4.01711 3.21341 
0.993123 5.71438 3.92751 
2.63653 1.33073 2.91338 
1.12952 4.15178 3.41163 
5.58695 5.89138 3.57742 
1.11603 5.15367 2.92491 
2.77098 3.60424 4.43847 
3.69266 6.22839 3.65672 
3.91468 5.38454 4.33804 
4.65018 3.32339 4.053 
2.37285 4.08544 5.7621 
5.10821 0.47515 4.94884 
2.59863 4.11595 0.537056 
1.20728 6.09611 5.00638 
2.17065 2.65706 4.20769 
4.37625 1.45396 5.30351 
3.36181 1.48143 5.75089 
3.33674 4.13359 2.92975 
2.78929 1.32941 0.343918 
0.702943 0.357213 5.7781 
5.27696 5.53277 1.50529 
5.57534 5.72031 2.51284 
3.92933 4.93265 3.37702 
0.133478 5.24925 2.13674 
1.16131 0.234632 0.438672 
2.50126 1.79463 4.76243 
3.59998 3.69422 1.94035 
5.41356 0.5336 3.87264 
1.7041 3.68211 4.22287 
4.71506 3.9139 2.16775 
0.705578 2.2777 5.43545 
5.17701 0.3359 2.80477 
6.04641 0.983184 4.57873 
4.59052 4.6828 1.41692 
4.41693 2.90118 2.01768 
2.47964 3.18461 6.34696 
3.22517 2.67571 4.66421 
4.36457 4.42737 0.360626 
6.24266 5.80728 1.25132 
4.72298 3.26896 5.68907 
3.80715 3.16331 2.85761 
3.70695 1.218 2.80749 
6.35756 3.7992 1.9237 
1.94606 0.520758 3.06735 
4.64923 6.15919 4.15933 
5.89472 0.298605 1.90651 
4.84563 0.195834 1.77404 
0.999195 4.66353 0.667621 
0.392093 4.84982 3.849 
0.493238 0.320342 1.28463 
2.23404 4.48822 4.72372 
1.22543 2.83642 4.68745 
4.40792 2.15511 2.86793 
6.00984 3.7144 4.61116 
1.90318 5.83424 3.32426 
5.43887 3.83959 1.3069 
4.28226 6.18819 6.28484 
2.4277 3.97905 3.46557 
3.21248 3.36383 5.58826 
0.612883 5.59813 0.507888 
0.156779 2.79509 4.50851 
5.62034 2.70614 0.166123 
3.64606 1.56975 0.937974 
5.1069 1.41121 3.32106 
3.3179 2.378 0.230494 
2.96026 0.827775 4.93231 
1.08028 2.08008 0.0669499 
6.14115 1.31077 3.5837 
4.57124 5.82957 3.12703 
4.68182 1.84303 1.05586 
2.58075 4.91007 2.89157 
4.75734 5.22136 5.99991 
5.38464 4.66281 0.633669 
0.690065 3.96219 4.46006 
4.09922 6.34698 1.02073 
1.80505 5.14794 2.09794 
2.84641 5.02978 5.83857 
0.31555 2.91295 6.33106 
1.62665 2.09609 1.08178 
4.35386 5.64362 2.0464 
0.502677 3.34849 5.34291 
3.40069 4.24423 6.22298 
5.86212 0.747726 6.06308 
1.69737 1.21598 0.263006 
4.40249 0.637461 3.48131 
3.04232 0.317519 2.93339 
3.99925 0.857952 1.65103 
0.737481 2.91556 1.70645 
6.30212 1.8986 6.3754 
1.69536 5.65608 0.724228 
2.8398 0.503531 5.99791 
1.93654 4.67691 1.16523 
0.931538 4.87379 5.74026 
4.79328 0.749433 5.98933 
6.01285 2.35389 5.41755 
5.72384 5.60284 0.270925 
1.49033 6.13143 2.38202 
4.93585 1.38865 4.38565 
1.0867 0.795024 2.19604 
1.52614 1.51172 2.88983 
4.57328 2.57199 0.240057 
5.28181 1.60867 0.152248 
0.910288 1.16962 3.72831 
0.95343 3.60634 2.48863 
3.84059 0.543118 5.52768 
2.14215 1.88413 2.05776 
3.56227 1.66486 4.67108 
3.07633 1.39881 1.90551 
0.270314 5.50194 4.78331 
4.9218 2.33549 3.79443 
6.16306 2.99731 1.11953 
4.28616 4.2237 5.62842 
3.50645 4.36791 1.06288 
2.21585 2.31476 3.05671 
1.08905 1.16577 1.13889 
2.29903 1.36826 5.72132 
5.765 2.00685 1.07525 
1.49725 0.294102 4.05447 
2.84581 4.97639 1.79802 
3.29632 2.21245 2.80315 
3.84938 5.13738 5.3835 
0.956409 2.54264 2.76307 
3.29296 4.2983 5.07568 
4.00279 1.91409 1.92256 
2.09059 1.26065 3.87033 
0.974776 5.61493 1.53063 
2.80085 2.37961 5.62556 
5.82725 4.79383 4.4688 
6.33965 4.70782 1.16541 
4.83545 4.87936 2.70532 
2.42903 6.23264 5.1791 
3.91524 3.36648 0.107231 
6.19945 0.141314 5.18609 
0.900587 0.21009 3.18807 
5.65322 2.27202 2.95848 
5.43014 0.114719 0.856141 
4.08881 0.243205 2.55878 
5.73051 3.03858 3.75767 
4.97322 2.26558 5.66057 
6.29003 2.26325 2.0579 
0.0161841 4.77507 0.042929 
4.83512 5.04252 4.93694 
0.543996 3.77672 0.990666 
1.19703 4.90304 4.64277 
6.20131 0.3837 3.03555 
3.67125 5.39851 1.23047 
5.46311 1.41325 5.34652 
2.8796 5.55703 3.70978 
0.0287959 3.11534 2.8225 
1.37328 3.09575 5.9784 
5.74586 5.19732 5.50712 
0.795257 3.168 3.70274 
0.202945 5.68438 3.15663 
2.40662 0.541903 2.07122 
