********************************************************************************
*                       GENERAL UTILITY LATTICE PROGRAM                        *
*                                 Julian Gale                                  *
*                      Nanochemistry Research Institute                        *
*                           Department of Chemistry                            *
*                    Curtin University, Western Australia                      *
********************************************************************************
* Version = 4.0.5 * Last modified =  21st June 2012                            *
********************************************************************************
*  single       - perform a single point run                                   *
*  phonon       - calculate phonons for final geometry                         *
*  eigenvectors - output phonon eigenvectors                                   *
********************************************************************************

  Job Started  at 14:04.59 30th December   2012                               

  Number of CPUs =     1


  Total number of configurations input =   1

********************************************************************************
*  Input for Configuration =   1                                               *
********************************************************************************

  Formula = Ar                                                          

  Number of irreducible atoms/shells =       1


  Total number atoms/shells =       1

  Dimensionality = 3               :  Bulk   



  Cartesian lattice vectors (Angstroms) :

        0.000000    2.635000    2.635000
        2.635000    0.000000    2.635000
        2.635000    2.635000    0.000000

  Cell parameters (Angstroms/Degrees):

  a =       3.7265    alpha =  60.0000
  b =       3.7265    beta  =  60.0000
  c =       3.7265    gamma =  60.0000

  Initial cell volume =          36.590796 Angs**3

  Temperature of configuration =  0.000     K 

  Pressure of configuration =         0.000 GPa 

  Fractional coordinates of asymmetric unit :

--------------------------------------------------------------------------------
   No.  Atomic       x           y          z         Charge      Occupancy
        Label      (Frac)      (Frac)     (Frac)        (e)         (Frac)  
--------------------------------------------------------------------------------
      1 Ar1   c    0.000000    0.000000    0.000000     0.00000    1.000000    
--------------------------------------------------------------------------------


  Brillouin zone sampling points :

--------------------------------------------------------------------------------
  Point number          x          y          z            Weight
--------------------------------------------------------------------------------
        1           0.049950   0.049950   0.050000         1.0000
--------------------------------------------------------------------------------


********************************************************************************
*  General input information                                                   *
********************************************************************************

  Species output for all configurations : 

--------------------------------------------------------------------------------
  Species    Type    Atomic    Atomic    Charge       Radii (Angs)     Library
                     Number     Mass       (e)     Cova   Ionic  VDW   Symbol
--------------------------------------------------------------------------------
    Ar1      Core       18      39.95   0.000000   0.000  0.000  0.000          
--------------------------------------------------------------------------------


  Lattice summation method               =    Ewald          (3-D)
                                         =    Parry          (2-D)
                                         =    Saunders et al (1-D)
  Accuracy factor for lattice sums       =   12.000


  Time limit = Infinity

  Maximum range for interatomic potentials =    100000.000000 Angstroms

  General interatomic potentials :

--------------------------------------------------------------------------------
Atom  Types   Potential         A         B         C         D     Cutoffs(Ang)
  1     2                                                            Min    Max 
--------------------------------------------------------------------------------
Ar1  c Ar1  c Lennard 12  6 0.995E+05  64.4      0.00      0.00     0.000  8.500
--------------------------------------------------------------------------------

********************************************************************************
*  Output for configuration   1                                                *
********************************************************************************


  Components of energy : 

--------------------------------------------------------------------------------
  Interatomic potentials     =          -0.08442471 eV
  Monopole - monopole (real) =           0.00000000 eV
  Monopole - monopole (recip)=           0.00000000 eV
  Monopole - monopole (total)=           0.00000000 eV
--------------------------------------------------------------------------------
  Total lattice energy       =          -0.08442471 eV
--------------------------------------------------------------------------------
  Total lattice energy       =              -8.1457 kJ/(mole unit cells)
--------------------------------------------------------------------------------


  Elastic Constant Matrix: (Units=GPa)

-------------------------------------------------------------------------------
  Indices      1         2         3         4         5         6    
-------------------------------------------------------------------------------
       1      4.1308    2.3503    2.3503   -0.0000   -0.0000    0.0000
       2      2.3503    4.1308    2.3503    0.0000    0.0000    0.0000
       3      2.3503    2.3503    4.1308    0.0000   -0.0000    0.0000
       4     -0.0000    0.0000    0.0000    2.3525    0.0000    0.0000
       5     -0.0000    0.0000   -0.0000    0.0000    2.3525    0.0000
       6      0.0000    0.0000    0.0000    0.0000    0.0000    2.3525
-------------------------------------------------------------------------------


  Elastic Compliance Matrix: (Units=1/GPa)

-------------------------------------------------------------------------------
  Indices      1         2         3         4         5         6    
-------------------------------------------------------------------------------
       1    0.412171 -0.149469 -0.149469  0.000000  0.000000  0.000000
       2   -0.149469  0.412171 -0.149469 -0.000000 -0.000000 -0.000000
       3   -0.149469 -0.149469  0.412171 -0.000000  0.000000  0.000000
       4    0.000000 -0.000000 -0.000000  0.425076 -0.000000 -0.000000
       5    0.000000 -0.000000  0.000000 -0.000000  0.425076 -0.000000
       6    0.000000 -0.000000  0.000000 -0.000000 -0.000000  0.425076
-------------------------------------------------------------------------------

  Mechanical properties :

-------------------------------------------------------------------------------
  Convention :                    Reuss         Voigt         Hill
-------------------------------------------------------------------------------
  Bulk  Modulus (GPa)     =       2.94376       2.94376       2.94376
  Shear Modulus (GPa)     =       1.41973       1.76761       1.59367
-------------------------------------------------------------------------------
  Velocity S-wave (km/s)  =       0.88494       0.98742       0.93758
  Velocity P-wave (km/s)  =       1.63338       1.70990       1.67208
-------------------------------------------------------------------------------
  Compressibility (1/GPa) =    0.33970206
-------------------------------------------------------------------------------
  Stress axis :                     x             y             z
-------------------------------------------------------------------------------
  Youngs Moduli (GPa)     =       2.42618       2.42618       2.42618
-------------------------------------------------------------------------------
  Poissons Ratio (x)      =                     0.36264       0.36264
  Poissons Ratio (y)      =       0.36264                     0.36264
  Poissons Ratio (z)      =       0.36264       0.36264
-------------------------------------------------------------------------------


  Piezoelectric Strain Matrix: (Units=C/m**2)

-------------------------------------------------------------------------------
  Indices      1         2         3         4         5         6    
-------------------------------------------------------------------------------
       x     0.00000   0.00000   0.00000   0.00000   0.00000   0.00000
       y     0.00000   0.00000   0.00000   0.00000   0.00000   0.00000
       z     0.00000   0.00000   0.00000   0.00000   0.00000   0.00000
-------------------------------------------------------------------------------


  Piezoelectric Stress Matrix: (Units=10**-11 C/N)

-------------------------------------------------------------------------------
  Indices      1         2         3         4         5         6    
-------------------------------------------------------------------------------
       x     0.00000   0.00000   0.00000   0.00000   0.00000   0.00000
       y     0.00000   0.00000   0.00000   0.00000   0.00000   0.00000
       z     0.00000   0.00000   0.00000   0.00000   0.00000   0.00000
-------------------------------------------------------------------------------


  Static dielectric constant tensor : 

-------------------------------------------------------------------------------
              x         y         z
-------------------------------------------------------------------------------
       x     1.00000   0.00000   0.00000
       y     0.00000   1.00000   0.00000
       z     0.00000   0.00000   1.00000
--------------------------------------------------------------------------------

  Static refractive indices : 

-------------------------------------------------------------------------------
    1 =    1.00000      2 =    1.00000      3 =    1.00000
-------------------------------------------------------------------------------


  Phonon Calculation : 

  Number of k points for this configuration =        1

--------------------------------------------------------------------------------
  K point      1 =   0.049950  0.049950  0.050000  Weight =    1.000
--------------------------------------------------------------------------------

 Frequencies (cm-1) and Eigenvectors : 

 Frequency       4.7528              4.7573              9.9987
 IR Intensity    0.0000              0.0000              0.0000
    in X         0.0000              0.0000              0.0000
    in Y         0.0000              0.0000              0.0000
    in Z         0.0000              0.0000              0.0000
 Raman Intsty    0.0000              0.0000              0.0000

                Real    Imaginary   Real    Imaginary   Real    Imaginary

     1 x      -0.586567 -0.394891  0.407932 -0.000000  0.577574 -0.000000
     1 y       0.586567  0.394891  0.407932 -0.000000  0.577574 -0.000000
     1 z       0.000000  0.000000 -0.816813  0.000000  0.576903  0.000000




--------------------------------------------------------------------------------
  Phonon properties (per mole of unit cells): Temperature =      0.000 K
--------------------------------------------------------------------------------
  Zero point energy            =        0.001209 eV
--------------------------------------------------------------------------------

  Phonon density of states : 

--------------------------------------------------------------------------------
 Frequency (cm-1) Density of States                                             
--------------------------------------------------------------------------------
    0.00000 |                                                              0.000
    0.15623 |                                                              0.000
    0.31246 |                                                              0.000
    0.46869 |                                                              0.000
    0.62493 |                                                              0.000
    0.78116 |                                                              0.000
    0.93739 |                                                              0.000
    1.09362 |                                                              0.000
    1.24985 |                                                              0.000
    1.40608 |                                                              0.000
    1.56231 |                                                              0.000
    1.71855 |                                                              0.000
    1.87478 |                                                              0.000
    2.03101 |                                                              0.000
    2.18724 |                                                              0.000
    2.34347 |                                                              0.000
    2.49970 |                                                              0.000
    2.65593 |                                                              0.000
    2.81216 |                                                              0.000
    2.96840 |                                                              0.000
    3.12463 |                                                              0.000
    3.28086 |                                                              0.000
    3.43709 |                                                              0.000
    3.59332 |                                                              0.000
    3.74955 |                                                              0.000
    3.90578 |                                                              0.000
    4.06202 |                                                              0.000
    4.21825 |                                                              0.000
    4.37448 |                                                              0.000
    4.53071 |                                                              0.000
    4.68694 |************************************************************  0.667
    4.84317 |                                                              0.000
    4.99940 |                                                              0.000
    5.15564 |                                                              0.000
    5.31187 |                                                              0.000
    5.46810 |                                                              0.000
    5.62433 |                                                              0.000
    5.78056 |                                                              0.000
    5.93679 |                                                              0.000
    6.09302 |                                                              0.000
    6.24926 |                                                              0.000
    6.40549 |                                                              0.000
    6.56172 |                                                              0.000
    6.71795 |                                                              0.000
    6.87418 |                                                              0.000
    7.03041 |                                                              0.000
    7.18664 |                                                              0.000
    7.34288 |                                                              0.000
    7.49911 |                                                              0.000
    7.65534 |                                                              0.000
    7.81157 |                                                              0.000
    7.96780 |                                                              0.000
    8.12403 |                                                              0.000
    8.28026 |                                                              0.000
    8.43649 |                                                              0.000
    8.59273 |                                                              0.000
    8.74896 |                                                              0.000
    8.90519 |                                                              0.000
    9.06142 |                                                              0.000
    9.21765 |                                                              0.000
    9.37388 |                                                              0.000
    9.53011 |                                                              0.000
    9.68635 |                                                              0.000
    9.84258 |******************************                                0.333
--------------------------------------------------------------------------------



  Time to end of properties =       0.0120 seconds


  Peak dynamic memory used =       0.46 MB 


  Timing analysis for GULP :

--------------------------------------------------------------------------------
  Task / Subroutine                                          Time (Seconds)
--------------------------------------------------------------------------------
  Calculation of real space energy and derivatives                0.0040
--------------------------------------------------------------------------------
  Total CPU time                                                  0.0120
--------------------------------------------------------------------------------


  Job Finished at 14:04.59 30th December   2012                               

