  LAMMPS description
 
      12   atoms
      11   bonds
      10   angles
       9   dihedrals
 
       2   atom types
       2   bond types
       2   angle types
       2   dihedral types
 
       0   30.000000     xlo xhi
       0   30.000000     ylo yhi
       0  150.000000     zlo zhi
  0.0000000      0.0000000      0.0000000     xy xz yz

  Masses

       1   32.070000
       2   12.010000

   Atoms

       1       1       1    0.000000    1.442498    4.996959   56.537346
       2       1       2    0.000000    1.442498    5.913140   58.103927
       3       1       2    0.000000    1.442498    5.022026   59.361355
       4       1       2    0.000000    1.442498    5.906581   60.624468
       5       1       2    0.000000    1.442498    5.018665   61.886808
       6       1       2    0.000000    1.442498    5.904192   63.150726
       7       1       2    0.000000    1.442498    5.016208   64.412894
       8       1       2    0.000000    1.442498    5.901708   65.676831
       9       1       2    0.000000    1.442498    5.013742   66.939135
      10       1       2    0.000000    1.442498    5.898227   68.202298
      11       1       2    0.000000    1.442498    5.007032   69.459666
      12       1       1    0.000000    1.442498    5.923107   71.026300

   Bonds

       1       1       3       2
       2       1       4       3
       3       1       5       4
       4       1       6       5
       5       1       7       6
       6       1       8       7
       7       1       9       8
       8       1      10       9
       9       1      11      10
      10       2       2       1
      11       2      12      11

   Angles

       1       1       2       3       4
       2       1       3       4       5
       3       1       4       5       6
       4       1       5       6       7
       5       1       6       7       8
       6       1       7       8       9
       7       1       8       9      10
       8       1       9      10      11
       9       2       1       2       3
      10       2      10      11      12

   Dihedrals

       1       1       1       2       3       4
       2       1       9      10      11      12
       1       2       2       3       4       5
       2       2       3       4       5       6
       3       2       4       5       6       7
       4       2       5       6       7       8
       5       2       6       7       8       9
       6       2       7       8       9      10
       7       2       8       9      10      11

