  LAMMPS description
 
      12   atoms
       0   bonds
       0   angles
       0   dihedrals
 
       2   atom types
       0   bond types
       0   angle types
       0   dihedral types
 
       0   30.000000     xlo xhi
       0   30.000000     ylo yhi
       0  150.000000     zlo zhi
  0.0000000      0.0000000      0.0000000     xy xz yz

  Masses

       1   32.070000
       2   12.010000

   Atoms

       1       1       1    0.000000    1.442498    4.996959   56.537346
       2       1       2    0.000000    1.442498    5.898313   58.112715
       3       1       2    0.000000    1.442498    4.996959   59.361379
       4       1       2    0.000000    1.442498    5.886081   60.618782
       5       1       2    0.000000    1.442498    4.996959   61.876185
       6       1       2    0.000000    1.442498    5.886081   63.133588
       7       1       2    0.000000    1.442498    4.996959   64.390991
       8       1       2    0.000000    1.442498    5.886081   65.648394
       9       1       2    0.000000    1.442498    4.996959   66.905797
      10       1       2    0.000000    1.442498    5.886081   68.163200
      11       1       2    0.000000    1.442498    4.996959   69.411864
      12       1       1    0.000000    1.442498    5.898313   70.987233

   Bonds


   Angles


   Dihedrals


