********************************************************************************
*                       GENERAL UTILITY LATTICE PROGRAM                        *
*                                 Julian Gale                                  *
*                      Nanochemistry Research Institute                        *
*                           Department of Chemistry                            *
*                    Curtin University, Western Australia                      *
********************************************************************************
* Version = 4.0.7 * Last modified =  14th December 2012                        *
********************************************************************************
*  optimise     - perform optimisation run                                     *
*  phonon       - calculate phonons for final geometry                         *
*  bond         - calculate bond lengths                                       *
*  angle        - calculate angles for valid three body terms                  *
*  torsion      - calculate torsion angles for valid four body terms           *
*  molecule     - molecule option activated, Coulomb subtract within molecule  *
********************************************************************************

  Job Started  at 13:01.05  1st July       2013                               

  Number of CPUs =     1


  Total number of configurations input =   1

********************************************************************************
*  Input for Configuration =   1                                               *
********************************************************************************

  Formula = S2C10                                                       

  Number of irreducible atoms/shells =      12


  Total number atoms/shells =      12

  Dimensionality = 3               :  Bulk   



  Cartesian lattice vectors (Angstroms) :

       30.000000    0.000000    0.000000
        0.000000   30.000000    0.000000
        0.000000    0.000000  150.000000

  Cell parameters (Angstroms/Degrees):

  a =      30.0000    alpha =  90.0000
  b =      30.0000    beta  =  90.0000
  c =     150.0000    gamma =  90.0000

  Initial cell volume =      135000.000000 Angs**3

  Temperature of configuration =  0.000     K 

  Pressure of configuration =         0.000 GPa 

  Fractional coordinates of asymmetric unit :

--------------------------------------------------------------------------------
   No.  Atomic       x           y          z         Charge      Occupancy
        Label      (Frac)      (Frac)     (Frac)        (e)         (Frac)  
--------------------------------------------------------------------------------
      1 S1    c    0.048083    0.166565    0.376916     0.00000    1.000000    
      2 C1    c    0.048083 *  0.196610 *  0.387418 *   0.00000    1.000000    
      3 C1    c    0.048083 *  0.166565 *  0.395743 *   0.00000    1.000000    
      4 C1    c    0.048083 *  0.196203 *  0.404125 *   0.00000    1.000000    
      5 C1    c    0.048083 *  0.166565 *  0.412508 *   0.00000    1.000000    
      6 C1    c    0.048083 *  0.196203 *  0.420891 *   0.00000    1.000000    
      7 C1    c    0.048083 *  0.166565 *  0.429273 *   0.00000    1.000000    
      8 C1    c    0.048083 *  0.196203 *  0.437656 *   0.00000    1.000000    
      9 C1    c    0.048083 *  0.166565 *  0.446039 *   0.00000    1.000000    
     10 C1    c    0.048083 *  0.196203 *  0.454421 *   0.00000    1.000000    
     11 C1    c    0.048083 *  0.166565 *  0.462746 *   0.00000    1.000000    
     12 S1    c    0.048083 *  0.196610 *  0.473248 *   0.00000    1.000000    
--------------------------------------------------------------------------------



  Molecule list generated from bond lengths :

  Total number of molecules =     1

--------------------------------------------------------------------------------
Molecule No./:  Atoms
Periodicity  :  
--------------------------------------------------------------------------------
     1  0    : S1   c     1 C1   c     2 C1   c     3 C1   c     4 C1   c     5
             : C1   c     6 C1   c     7 C1   c     8 C1   c     9 C1   c    10
             : C1   c    11 S1   c    12
--------------------------------------------------------------------------------


  Bond calculation :

--------------------------------------------------------------------------------
  Asymmetric unit site  Full lattice sites    No.  Distance      No.  Distance
                                                    (Angs)             (Angs) 
--------------------------------------------------------------------------------
      1    S1    core        C1    core        1    1.8150
--------------------------------------------------------------------------------
      2    C1    core        S1    core        1    1.8150
                             C1    core        1    1.5400
--------------------------------------------------------------------------------
      3    C1    core        C1    core        2    1.5400
--------------------------------------------------------------------------------
      4    C1    core        C1    core        2    1.5400
--------------------------------------------------------------------------------
      5    C1    core        C1    core        2    1.5400
--------------------------------------------------------------------------------
      6    C1    core        C1    core        2    1.5400
--------------------------------------------------------------------------------
      7    C1    core        C1    core        2    1.5400
--------------------------------------------------------------------------------
      8    C1    core        C1    core        2    1.5400
--------------------------------------------------------------------------------
      9    C1    core        C1    core        2    1.5400
--------------------------------------------------------------------------------
     10    C1    core        C1    core        1    1.5329        1    1.5400
--------------------------------------------------------------------------------
     11    C1    core        S1    core        1    1.8150
                             C1    core        1    1.5329
--------------------------------------------------------------------------------
     12    S1    core        C1    core        1    1.8150
--------------------------------------------------------------------------------
  Total number of bonds =       11
--------------------------------------------------------------------------------



  Analysis of three-body terms :

--------------------------------------------------------------------------------
  Potential   Atom 1  Atom 2  Atom 3   Angle   Atom 1  Atom 2  Atom 3   Angle  
--------------------------------------------------------------------------------
      1       C1    c C1    c C1    c 108.912  C1    c C1    c C1    c 109.471
              C1    c C1    c C1    c 109.471  C1    c C1    c C1    c 109.471
              C1    c C1    c C1    c 109.471  C1    c C1    c C1    c 109.471
              C1    c C1    c C1    c 109.471  C1    c C1    c C1    c 109.282
--------------------------------------------------------------------------------
      2       C1    c S1    c C1    c 114.400  C1    c C1    c S1    c 114.771
--------------------------------------------------------------------------------
  Total number of angles =       10
--------------------------------------------------------------------------------



  Analysis of four-body terms for primitive cell:

--------------------------------------------------------------------------------
  Potential   Atom 1     Atom 2     Atom 3     Atom 4         Phi (degrees)
--------------------------------------------------------------------------------
       1     S1       1 C1       2 C1       3 C1       4       179.999999
             C1       9 C1      10 C1      11 S1      12       180.000000
--------------------------------------------------------------------------------
       2     C1       2 C1       3 C1       4 C1       5       180.000000
             C1       3 C1       4 C1       5 C1       6       180.000000
             C1       4 C1       5 C1       6 C1       7       180.000000
             C1       5 C1       6 C1       7 C1       8       180.000000
             C1       6 C1       7 C1       8 C1       9       180.000000
             C1       7 C1       8 C1       9 C1      10       180.000000
             C1       8 C1       9 C1      10 C1      11       180.000000
--------------------------------------------------------------------------------
  Total number of torsions =        9
--------------------------------------------------------------------------------



********************************************************************************
*  General input information                                                   *
********************************************************************************

  Species output for all configurations : 

--------------------------------------------------------------------------------
  Species    Type    Atomic    Atomic    Charge       Radii (Angs)     Library
                     Number     Mass       (e)     Cova   Ionic  VDW   Symbol
--------------------------------------------------------------------------------
    S1       Core       16      32.07   0.000000   1.020  0.000  1.700          
    C1       Core        6      12.01   0.000000   0.770  0.000  1.530          
--------------------------------------------------------------------------------


  Lattice summation method               =    Ewald          (3-D)
                                         =    Parry          (2-D)
                                         =    Saunders et al (1-D)
  Accuracy factor for lattice sums       =   12.000


  Time limit = Infinity

  Maximum range for interatomic potentials =    100000.000000 Angstroms

  Intramolecular potentials :

--------------------------------------------------------------------------------
Atom  Types   Potential         A         B         C         D     Cutoffs(Ang)
  1     2                                                            Min    Max 
--------------------------------------------------------------------------------
C1   c C1   c Harmonic       22.5      1.54      0.00      0.00     0.000 1 Bond
                                                                    single      
C1   c S1   c Harmonic       19.1      1.81      0.00      0.00     0.000 1 Bond
                                                                    single      
C1   c C1   c Lenn/es 12  6 0.513E-02  3.91      0.00      0.00     3Bond 10.000
C1   c S1   c Lenn/es 12  6 0.750E-02  3.73      0.00      0.00     3Bond 10.000
S1   c S1   c Lenn/es 12  6 0.172E-01  4.25      0.00      0.00     3Bond 10.000
--------------------------------------------------------------------------------

  Intramolecular Three-body potentials :

  Cosine Harmonic form:

--------------------------------------------------------------------------------
Atom    Atom    Atom           Force Constants            Theta     Cutoffs  
  1       2       3               (eV)                    (deg)  1-2  1-3  2-3
--------------------------------------------------------------------------------
C1    c C1    c C1    c                  5.3880000       109.471     Bonded
C1    c C1    c S1    c                  5.3880000       114.400     Bonded
--------------------------------------------------------------------------------

  Intramolecular Four-body potentials :

  Ryckaert-Bellemanns form:

--------------------------------------------------------------------------------
         Atom Types              Zeroth-order Power            Cutoffs
   1       2       3       4      term (eV)             1-2   2-3   3-4   4-1
--------------------------------------------------------------------------------
S1    c C1    c C1    c C1    c  0.96170E-01    5      Bonded single       
Coefficients (eV) =    -0.125988   -0.135980    0.031700    0.271960    0.326420
C1    c C1    c C1    c C1    c  0.96170E-01    5      Bonded single       
Coefficients (eV) =    -0.125988   -0.135980    0.031700    0.271960    0.326420
--------------------------------------------------------------------------------

********************************************************************************
*  Output for configuration   1                                                *
********************************************************************************


  Components of energy : 

--------------------------------------------------------------------------------
  Interatomic potentials     =          -0.04222355 eV
  Three-body potentials      =           0.00034821 eV
  Four-body potentials       =           0.00016200 eV
  Out of plane potentials    =           0.00000000 eV
  Monopole - monopole (real) =           0.00000000 eV
  Monopole - monopole (recip)=           0.00000000 eV
  Monopole - monopole (total)=           0.00000000 eV
--------------------------------------------------------------------------------
  Total lattice energy       =          -0.04171334 eV
--------------------------------------------------------------------------------
  Total lattice energy       =              -4.0247 kJ/(mole unit cells)
--------------------------------------------------------------------------------


  Number of variables =       33

  Maximum number of calculations  =          1000
  Maximum Hessian update interval =            10
  Maximum step size               =   1.000000000
  Maximum parameter tolerance     =   0.000010000
  Maximum function  tolerance     =   0.000010000
  Maximum gradient  tolerance     =   0.001000000
  Maximum gradient  component     =   0.010000000

  Symmetry not applied to optimisation

  Newton-Raphson optimiser to be used

  BFGS hessian update to be used

  Start of bulk optimisation :

  Cycle:      0 Energy:        -0.041713  Gnorm:      0.927875  CPU:    0.032
  ** Hessian calculated **
  Cycle:      1 Energy:        -0.044698  Gnorm:      0.009205  CPU:    0.032


  **** Optimisation achieved ****


  Final energy =      -0.04469802 eV
  Final Gnorm  =       0.00059914

  Components of energy : 

--------------------------------------------------------------------------------
  Interatomic potentials     =          -0.04559749 eV
  Three-body potentials      =           0.00073747 eV
  Four-body potentials       =           0.00016200 eV
  Out of plane potentials    =           0.00000000 eV
  Monopole - monopole (real) =           0.00000000 eV
  Monopole - monopole (recip)=           0.00000000 eV
  Monopole - monopole (total)=           0.00000000 eV
--------------------------------------------------------------------------------
  Total lattice energy       =          -0.04469802 eV
--------------------------------------------------------------------------------
  Total lattice energy       =              -4.3127 kJ/(mole unit cells)
--------------------------------------------------------------------------------

  Final fractional coordinates of atoms :

--------------------------------------------------------------------------------
   No.  Atomic        x           y          z          Radius
        Label       (Frac)      (Frac)     (Frac)       (Angs) 
--------------------------------------------------------------------------------
     1  S1    c     0.048083    0.166565    0.376916    0.000000
     2  C1    c     0.048083    0.197105    0.387360    0.000000
     3  C1    c     0.048083    0.167401    0.395742    0.000000
     4  C1    c     0.048083    0.196886    0.404163    0.000000
     5  C1    c     0.048083    0.167289    0.412579    0.000000
     6  C1    c     0.048083    0.196806    0.421005    0.000000
     7  C1    c     0.048083    0.167207    0.429419    0.000000
     8  C1    c     0.048083    0.196724    0.437846    0.000000
     9  C1    c     0.048083    0.167125    0.446261    0.000000
    10  C1    c     0.048083    0.196608    0.454682    0.000000
    11  C1    c     0.048083    0.166901    0.463064    0.000000
    12  S1    c     0.048083    0.197437    0.473509    0.000000
--------------------------------------------------------------------------------

  Final Cartesian lattice vectors (Angstroms) :

       30.000000    0.000000    0.000000
        0.000000   30.000000    0.000000
        0.000000    0.000000  150.000000


  Final cell parameters and derivatives :

--------------------------------------------------------------------------------
       a           30.000000 Angstrom     dE/de1(xx)     0.000000 eV/strain
       b           30.000000 Angstrom     dE/de2(yy)     0.000000 eV/strain
       c          150.000000 Angstrom     dE/de3(zz)     0.000000 eV/strain
       alpha       90.000000 Degrees      dE/de4(yz)     0.000000 eV/strain
       beta        90.000000 Degrees      dE/de5(xz)     0.000000 eV/strain
       gamma       90.000000 Degrees      dE/de6(xy)     0.000000 eV/strain
--------------------------------------------------------------------------------

  Primitive cell volume =        135000.000000 Angs**3

  Density of cell =      0.002266 g/cm**3

  Non-primitive cell volume =        135000.000000 Angs**3


  Final internal derivatives :

--------------------------------------------------------------------------------
   No.  Atomic          a             b             c           Radius
        Label          (eV)          (eV)          (eV)        (eV/Angs)
--------------------------------------------------------------------------------
      1 S1    c       0.000000      0.000000      0.000000      0.000000
      2 C1    c       0.000000      0.001581      0.002726      0.000000
      3 C1    c       0.000000     -0.000861      0.009121      0.000000
      4 C1    c       0.000000     -0.000283     -0.005564      0.000000
      5 C1    c       0.000000      0.000184      0.006758      0.000000
      6 C1    c       0.000000     -0.000156     -0.006384      0.000000
      7 C1    c       0.000000      0.000159      0.004460      0.000000
      8 C1    c       0.000000      0.000051     -0.002807      0.000000
      9 C1    c       0.000000     -0.000049     -0.001252      0.000000
     10 C1    c       0.000000      0.000717      0.004950      0.000000
     11 C1    c       0.000000      0.000847      0.006486      0.000000
     12 S1    c       0.000000     -0.001532     -0.008945      0.000000
--------------------------------------------------------------------------------
  Maximum abs         0.000000      0.001581      0.009121      0.000000
--------------------------------------------------------------------------------


  Bond calculation :

--------------------------------------------------------------------------------
  Asymmetric unit site  Full lattice sites    No.  Distance      No.  Distance
                                                    (Angs)             (Angs) 
--------------------------------------------------------------------------------
      1    S1    core        C1    core        1    1.8148
--------------------------------------------------------------------------------
      2    C1    core        S1    core        1    1.8148
                             C1    core        1    1.5412
--------------------------------------------------------------------------------
      3    C1    core        C1    core        1    1.5412        1    1.5420
--------------------------------------------------------------------------------
      4    C1    core        C1    core        1    1.5420        1    1.5433
--------------------------------------------------------------------------------
      5    C1    core        C1    core        2    1.5433
--------------------------------------------------------------------------------
      6    C1    core        C1    core        2    1.5433
--------------------------------------------------------------------------------
      7    C1    core        C1    core        2    1.5432
--------------------------------------------------------------------------------
      8    C1    core        C1    core        2    1.5433
--------------------------------------------------------------------------------
      9    C1    core        C1    core        1    1.5420        1    1.5433
--------------------------------------------------------------------------------
     10    C1    core        C1    core        1    1.5412        1    1.5420
--------------------------------------------------------------------------------
     11    C1    core        S1    core        1    1.8148
                             C1    core        1    1.5412
--------------------------------------------------------------------------------
     12    S1    core        C1    core        1    1.8148
--------------------------------------------------------------------------------
  Total number of bonds =       11
--------------------------------------------------------------------------------



  Analysis of three-body terms :

--------------------------------------------------------------------------------
  Potential   Atom 1  Atom 2  Atom 3   Angle   Atom 1  Atom 2  Atom 3   Angle  
--------------------------------------------------------------------------------
      1       C1    c C1    c C1    c 109.672  C1    c C1    c C1    c 109.874
              C1    c C1    c C1    c 109.862  C1    c C1    c C1    c 109.856
              C1    c C1    c C1    c 109.857  C1    c C1    c C1    c 109.861
              C1    c C1    c C1    c 109.875  C1    c C1    c C1    c 109.672
--------------------------------------------------------------------------------
      2       C1    c S1    c C1    c 114.355  C1    c C1    c S1    c 114.355
--------------------------------------------------------------------------------
  Total number of angles =       10
--------------------------------------------------------------------------------



  Analysis of four-body terms for primitive cell:

--------------------------------------------------------------------------------
  Potential   Atom 1     Atom 2     Atom 3     Atom 4         Phi (degrees)
--------------------------------------------------------------------------------
       1     S1       1 C1       2 C1       3 C1       4       180.000000
             C1       9 C1      10 C1      11 S1      12       180.000000
--------------------------------------------------------------------------------
       2     C1       2 C1       3 C1       4 C1       5       180.000000
             C1       3 C1       4 C1       5 C1       6       180.000000
             C1       4 C1       5 C1       6 C1       7       180.000000
             C1       5 C1       6 C1       7 C1       8       180.000000
             C1       6 C1       7 C1       8 C1       9       180.000000
             C1       7 C1       8 C1       9 C1      10       180.000000
             C1       8 C1       9 C1      10 C1      11       180.000000
--------------------------------------------------------------------------------
  Total number of torsions =        9
--------------------------------------------------------------------------------



  Mechanical properties :

-------------------------------------------------------------------------------
  Convention :                    Reuss         Voigt         Hill
-------------------------------------------------------------------------------
  Bulk  Modulus (GPa)     = *************      -0.00000 *************
  Shear Modulus (GPa)     = *************      -0.00000 *************
-------------------------------------------------------------------------------
  Velocity S-wave (km/s)  =  -53642.15619      -0.00470  -37930.73240
  Velocity P-wave (km/s)  =   94034.25848       0.00581   66492.26184
-------------------------------------------------------------------------------
  Compressibility (1/GPa) =   -0.00000009
-------------------------------------------------------------------------------
  Stress axis :                     x             y             z
-------------------------------------------------------------------------------
  Youngs Moduli (GPa)     =       0.00000 ************* *************
-------------------------------------------------------------------------------
  Poissons Ratio (x)      =                     0.00000       0.00000
  Poissons Ratio (y)      =      -0.00000                     0.65362
  Poissons Ratio (z)      =      -0.00000       0.92473
-------------------------------------------------------------------------------


  Piezoelectric Strain Matrix: (Units=C/m**2)

-------------------------------------------------------------------------------
  Indices      1         2         3         4         5         6    
-------------------------------------------------------------------------------
       x    -0.00000  -0.00000  -0.00000  -0.00000  -0.00000  -0.00000
       y    -0.00000  -0.00000  -0.00000  -0.00000  -0.00000  -0.00000
       z    -0.00000  -0.00000  -0.00000  -0.00000  -0.00000  -0.00000
-------------------------------------------------------------------------------


  Piezoelectric Stress Matrix: (Units=10**-11 C/N)

-------------------------------------------------------------------------------
  Indices      1         2         3         4         5         6    
-------------------------------------------------------------------------------
       x     0.00000   0.00000   0.00000   0.00000   0.00000   0.00000
       y     0.00000   0.00000   0.00000   0.00000   0.00000   0.00000
       z     0.00000   0.00000   0.00000   0.00000   0.00000   0.00000
-------------------------------------------------------------------------------


  Static dielectric constant tensor : 

-------------------------------------------------------------------------------
              x         y         z
-------------------------------------------------------------------------------
       x     1.00000   0.00000   0.00000
       y     0.00000   1.00000   0.00000
       z     0.00000   0.00000   1.00000
--------------------------------------------------------------------------------

  Static refractive indices : 

-------------------------------------------------------------------------------
    1 =    1.00000      2 =    1.00000      3 =    1.00000
-------------------------------------------------------------------------------


  Phonon Calculation : 

  K direction for n-a correction at gamma =  1.00000  1.00000  1.00000

  Number of k points for this configuration =        1

--------------------------------------------------------------------------------
  K point      1 =   0.000000  0.000000  0.000000  Weight =    1.000
--------------------------------------------------------------------------------

  Frequencies (cm-1) [NB: Negative implies an imaginary mode]:

   -0.15   -0.00    0.00    0.00    0.06    0.42   20.97   29.72   63.16
   83.18   86.48  121.45  131.95  160.38  160.83  209.78  224.37  238.90
  257.73  265.84  269.49  354.04  364.46  451.64  455.48  800.41  801.04
  987.45  990.92 1029.31 1031.53 1065.90 1078.46 1120.44 1150.78 1168.98


--------------------------------------------------------------------------------
  Phonon properties (per mole of unit cells): Temperature =      0.000 K
--------------------------------------------------------------------------------
  Zero point energy            =        0.940740 eV
--------------------------------------------------------------------------------

  Phonon density of states : 

--------------------------------------------------------------------------------
 Frequency (cm-1) Density of States                                             
--------------------------------------------------------------------------------
    0.00000 |************************************************************  0.118
   18.26537 |******************************                                0.059
   36.53074 |                                                              0.000
   54.79611 |***************                                               0.029
   73.06148 |******************************                                0.059
   91.32685 |                                                              0.000
  109.59222 |***************                                               0.029
  127.85759 |***************                                               0.029
  146.12296 |******************************                                0.059
  164.38833 |                                                              0.000
  182.65371 |                                                              0.000
  200.91908 |***************                                               0.029
  219.18445 |***************                                               0.029
  237.44982 |***************                                               0.029
  255.71519 |*********************************************                 0.088
  273.98056 |                                                              0.000
  292.24593 |                                                              0.000
  310.51130 |                                                              0.000
  328.77667 |                                                              0.000
  347.04204 |******************************                                0.059
  365.30741 |                                                              0.000
  383.57278 |                                                              0.000
  401.83815 |                                                              0.000
  420.10352 |                                                              0.000
  438.36889 |******************************                                0.059
  456.63426 |                                                              0.000
  474.89963 |                                                              0.000
  493.16500 |                                                              0.000
  511.43037 |                                                              0.000
  529.69575 |                                                              0.000
  547.96112 |                                                              0.000
  566.22649 |                                                              0.000
  584.49186 |                                                              0.000
  602.75723 |                                                              0.000
  621.02260 |                                                              0.000
  639.28797 |                                                              0.000
  657.55334 |                                                              0.000
  675.81871 |                                                              0.000
  694.08408 |                                                              0.000
  712.34945 |                                                              0.000
  730.61482 |                                                              0.000
  748.88019 |                                                              0.000
  767.14556 |                                                              0.000
  785.41093 |******************************                                0.059
  803.67630 |                                                              0.000
  821.94167 |                                                              0.000
  840.20704 |                                                              0.000
  858.47242 |                                                              0.000
  876.73779 |                                                              0.000
  895.00316 |                                                              0.000
  913.26853 |                                                              0.000
  931.53390 |                                                              0.000
  949.79927 |                                                              0.000
  968.06464 |                                                              0.000
  986.33001 |******************************                                0.059
 1004.59538 |                                                              0.000
 1022.86075 |******************************                                0.059
 1041.12612 |                                                              0.000
 1059.39149 |***************                                               0.029
 1077.65686 |***************                                               0.029
 1095.92223 |                                                              0.000
 1114.18760 |***************                                               0.029
 1132.45297 |                                                              0.000
 1150.71834 |******************************                                0.059
--------------------------------------------------------------------------------



  Time to end of optimisation =       0.0400 seconds


  Peak dynamic memory used =       0.52 MB 


  Timing analysis for GULP :

--------------------------------------------------------------------------------
  Task / Subroutine                                          Time (Seconds)
--------------------------------------------------------------------------------
  Calculation of real space energy and derivatives                0.0040
  Calculation of three-body energy and derivatives                0.0040
  Calculation of four-body energy and derivatives                 0.0040
  Calculation of molecules and connectivity                       0.0040
--------------------------------------------------------------------------------
  Total CPU time                                                  0.0400
--------------------------------------------------------------------------------


  LAMMPS file written on channel 26


  Job Finished at 13:01.05  1st July       2013                               

