********************************************************************************
*                       GENERAL UTILITY LATTICE PROGRAM                        *
*                                 Julian Gale                                  *
*                      Nanochemistry Research Institute                        *
*                           Department of Chemistry                            *
*                    Curtin University, Western Australia                      *
********************************************************************************
* Version = 4.0.7 * Last modified =  14th December 2012                        *
********************************************************************************
*  single       - perform a single point run                                   *
*  phonon       - calculate phonons for final geometry                         *
*  bond         - calculate bond lengths                                       *
*  angle        - calculate angles for valid three body terms                  *
*  torsion      - calculate torsion angles for valid four body terms           *
*  molecule     - molecule option activated, Coulomb subtract within molecule  *
********************************************************************************

  Job Started  at 12:33.13  1st July       2013                               

  Number of CPUs =     1


  Total number of configurations input =   1

********************************************************************************
*  Input for Configuration =   1                                               *
********************************************************************************

  Formula = S2C10                                                       

  Number of irreducible atoms/shells =      12


  Total number atoms/shells =      12

  Dimensionality = 3               :  Bulk   



  Cartesian lattice vectors (Angstroms) :

       30.000000    0.000000    0.000000
        0.000000   30.000000    0.000000
        0.000000    0.000000  150.000000

  Cell parameters (Angstroms/Degrees):

  a =      30.0000    alpha =  90.0000
  b =      30.0000    beta  =  90.0000
  c =     150.0000    gamma =  90.0000

  Initial cell volume =      135000.000000 Angs**3

  Temperature of configuration =  0.000     K 

  Pressure of configuration =         0.000 GPa 

  Fractional coordinates of asymmetric unit :

--------------------------------------------------------------------------------
   No.  Atomic       x           y          z         Charge      Occupancy
        Label      (Frac)      (Frac)     (Frac)        (e)         (Frac)  
--------------------------------------------------------------------------------
      1 S1    c    0.048083    0.166565    0.376916     0.00000    1.000000    
      2 C1    c    0.048083    0.196610    0.387418     0.00000    1.000000    
      3 C1    c    0.048083    0.166565    0.395743     0.00000    1.000000    
      4 C1    c    0.048083    0.196203    0.404125     0.00000    1.000000    
      5 C1    c    0.048083    0.166565    0.412508     0.00000    1.000000    
      6 C1    c    0.048083    0.196203    0.420891     0.00000    1.000000    
      7 C1    c    0.048083    0.166565    0.429273     0.00000    1.000000    
      8 C1    c    0.048083    0.196203    0.437656     0.00000    1.000000    
      9 C1    c    0.048083    0.166565    0.446039     0.00000    1.000000    
     10 C1    c    0.048083    0.196203    0.454421     0.00000    1.000000    
     11 C1    c    0.048083    0.166565    0.462746     0.00000    1.000000    
     12 S1    c    0.048083    0.196610    0.473248     0.00000    1.000000    
--------------------------------------------------------------------------------



  Molecule list generated from bond lengths :

  Total number of molecules =     1

--------------------------------------------------------------------------------
Molecule No./:  Atoms
Periodicity  :  
--------------------------------------------------------------------------------
     1  0    : S1   c     1 C1   c     2 C1   c     3 C1   c     4 C1   c     5
             : C1   c     6 C1   c     7 C1   c     8 C1   c     9 C1   c    10
             : C1   c    11 S1   c    12
--------------------------------------------------------------------------------


  Bond calculation :

--------------------------------------------------------------------------------
  Asymmetric unit site  Full lattice sites    No.  Distance      No.  Distance
                                                    (Angs)             (Angs) 
--------------------------------------------------------------------------------
      1    S1    core        C1    core        1    1.8150
--------------------------------------------------------------------------------
      2    C1    core        S1    core        1    1.8150
                             C1    core        1    1.5400
--------------------------------------------------------------------------------
      3    C1    core        C1    core        2    1.5400
--------------------------------------------------------------------------------
      4    C1    core        C1    core        2    1.5400
--------------------------------------------------------------------------------
      5    C1    core        C1    core        2    1.5400
--------------------------------------------------------------------------------
      6    C1    core        C1    core        2    1.5400
--------------------------------------------------------------------------------
      7    C1    core        C1    core        2    1.5400
--------------------------------------------------------------------------------
      8    C1    core        C1    core        2    1.5400
--------------------------------------------------------------------------------
      9    C1    core        C1    core        2    1.5400
--------------------------------------------------------------------------------
     10    C1    core        C1    core        1    1.5329        1    1.5400
--------------------------------------------------------------------------------
     11    C1    core        S1    core        1    1.8150
                             C1    core        1    1.5329
--------------------------------------------------------------------------------
     12    S1    core        C1    core        1    1.8150
--------------------------------------------------------------------------------
  Total number of bonds =       11
--------------------------------------------------------------------------------



********************************************************************************
*  General input information                                                   *
********************************************************************************

  Species output for all configurations : 

--------------------------------------------------------------------------------
  Species    Type    Atomic    Atomic    Charge       Radii (Angs)     Library
                     Number     Mass       (e)     Cova   Ionic  VDW   Symbol
--------------------------------------------------------------------------------
    S1       Core       16      32.07   0.000000   1.020  0.000  1.700          
    C1       Core        6      12.01   0.000000   0.770  0.000  1.530          
--------------------------------------------------------------------------------


  Lattice summation method               =    Ewald          (3-D)
                                         =    Parry          (2-D)
                                         =    Saunders et al (1-D)
  Accuracy factor for lattice sums       =   12.000


  Time limit = Infinity

  Maximum range for interatomic potentials =    100000.000000 Angstroms

  Intramolecular potentials :

--------------------------------------------------------------------------------
Atom  Types   Potential         A         B         C         D     Cutoffs(Ang)
  1     2                                                            Min    Max 
--------------------------------------------------------------------------------
C    c C    c Lenn/es 12  6 0.513E-02  3.91      0.00      0.00     3Bond 10.000
C    c S    c Lenn/es 12  6 0.750E-02  3.73      0.00      0.00     3Bond 10.000
S    c S    c Lenn/es 12  6 0.172E-01  4.25      0.00      0.00     3Bond 10.000
--------------------------------------------------------------------------------

********************************************************************************
*  Output for configuration   1                                                *
********************************************************************************


  Components of energy : 

--------------------------------------------------------------------------------
  Interatomic potentials     =          -0.04279599 eV
  Monopole - monopole (real) =           0.00000000 eV
  Monopole - monopole (recip)=           0.00000000 eV
  Monopole - monopole (total)=           0.00000000 eV
--------------------------------------------------------------------------------
  Total lattice energy       =          -0.04279599 eV
--------------------------------------------------------------------------------
  Total lattice energy       =              -4.1292 kJ/(mole unit cells)
--------------------------------------------------------------------------------

  Mechanical properties :

-------------------------------------------------------------------------------
  Convention :                    Reuss         Voigt         Hill
-------------------------------------------------------------------------------
  Bulk  Modulus (GPa)     =    1035.25637       0.00011     517.62824
  Shear Modulus (GPa)     =    2039.05673       0.00027    1019.52850
-------------------------------------------------------------------------------
  Velocity S-wave (km/s)  =     948.55294       0.34229     670.72826
  Velocity P-wave (km/s)  =    1287.04573       0.45120     910.07882
-------------------------------------------------------------------------------
  Compressibility (1/GPa) =    0.00096594
-------------------------------------------------------------------------------
  Stress axis :                     x             y             z
-------------------------------------------------------------------------------
  Youngs Moduli (GPa)     =       0.00000    8146.29245    1053.86479
-------------------------------------------------------------------------------
  Poissons Ratio (x)      =                    -0.00000      -0.00000
  Poissons Ratio (y)      =      -0.00000                     0.05570
  Poissons Ratio (z)      =      -0.00000       0.43053
-------------------------------------------------------------------------------


  Piezoelectric Strain Matrix: (Units=C/m**2)

-------------------------------------------------------------------------------
  Indices      1         2         3         4         5         6    
-------------------------------------------------------------------------------
       x    -0.00000  -0.00000  -0.00000  -0.00000  -0.00000  -0.00000
       y    -0.00000  -0.00000  -0.00000  -0.00000  -0.00000  -0.00000
       z    -0.00000  -0.00000  -0.00000  -0.00000  -0.00000  -0.00000
-------------------------------------------------------------------------------


  Piezoelectric Stress Matrix: (Units=10**-11 C/N)

-------------------------------------------------------------------------------
  Indices      1         2         3         4         5         6    
-------------------------------------------------------------------------------
       x     0.00000   0.00000   0.00000   0.00000   0.00000   0.00000
       y     0.00000   0.00000   0.00000   0.00000   0.00000   0.00000
       z     0.00000   0.00000   0.00000   0.00000   0.00000   0.00000
-------------------------------------------------------------------------------


  Static dielectric constant tensor : 

-------------------------------------------------------------------------------
              x         y         z
-------------------------------------------------------------------------------
       x     1.00000   0.00000   0.00000
       y     0.00000   1.00000   0.00000
       z     0.00000   0.00000   1.00000
--------------------------------------------------------------------------------

  Static refractive indices : 

-------------------------------------------------------------------------------
    1 =    1.00000      2 =    1.00000      3 =    1.00000
-------------------------------------------------------------------------------


  Phonon Calculation : 

  K direction for n-a correction at gamma =  1.00000  1.00000  1.00000

  Number of k points for this configuration =        1

--------------------------------------------------------------------------------
  K point      1 =   0.000000  0.000000  0.000000  Weight =    1.000
--------------------------------------------------------------------------------

  Frequencies (cm-1) [NB: Negative implies an imaginary mode]:

  -27.21  -25.36  -25.05  -24.94  -23.66  -23.31  -20.94  -20.77  -14.49
  -14.37  -14.30  -14.18  -10.90  -10.69  -10.53   -8.49   -0.00    0.00
    0.00    2.01    2.36    2.38    2.75    5.52    5.73    5.77    5.83
   22.05   22.30   53.56   68.51   68.66   90.87  108.33  108.46  115.30


--------------------------------------------------------------------------------
  Phonon properties (per mole of unit cells): Temperature =      0.000 K
--------------------------------------------------------------------------------
  Zero point energy            =        0.042800 eV
--------------------------------------------------------------------------------

  Phonon density of states : 

--------------------------------------------------------------------------------
 Frequency (cm-1) Density of States                                             
--------------------------------------------------------------------------------
    0.00000 |******************************                                0.105
    1.80151 |************************************************************  0.211
    3.60301 |                                                              0.000
    5.40452 |************************************************************  0.211
    7.20602 |                                                              0.000
    9.00753 |                                                              0.000
   10.80903 |                                                              0.000
   12.61054 |                                                              0.000
   14.41204 |                                                              0.000
   16.21355 |                                                              0.000
   18.01505 |                                                              0.000
   19.81656 |                                                              0.000
   21.61806 |******************************                                0.105
   23.41957 |                                                              0.000
   25.22107 |                                                              0.000
   27.02258 |                                                              0.000
   28.82408 |                                                              0.000
   30.62559 |                                                              0.000
   32.42710 |                                                              0.000
   34.22860 |                                                              0.000
   36.03011 |                                                              0.000
   37.83161 |                                                              0.000
   39.63312 |                                                              0.000
   41.43462 |                                                              0.000
   43.23613 |                                                              0.000
   45.03763 |                                                              0.000
   46.83914 |                                                              0.000
   48.64064 |                                                              0.000
   50.44215 |                                                              0.000
   52.24365 |***************                                               0.053
   54.04516 |                                                              0.000
   55.84666 |                                                              0.000
   57.64817 |                                                              0.000
   59.44967 |                                                              0.000
   61.25118 |                                                              0.000
   63.05269 |                                                              0.000
   64.85419 |                                                              0.000
   66.65570 |                                                              0.000
   68.45720 |******************************                                0.105
   70.25871 |                                                              0.000
   72.06021 |                                                              0.000
   73.86172 |                                                              0.000
   75.66322 |                                                              0.000
   77.46473 |                                                              0.000
   79.26623 |                                                              0.000
   81.06774 |                                                              0.000
   82.86924 |                                                              0.000
   84.67075 |                                                              0.000
   86.47225 |                                                              0.000
   88.27376 |                                                              0.000
   90.07526 |***************                                               0.053
   91.87677 |                                                              0.000
   93.67828 |                                                              0.000
   95.47978 |                                                              0.000
   97.28129 |                                                              0.000
   99.08279 |                                                              0.000
  100.88430 |                                                              0.000
  102.68580 |                                                              0.000
  104.48731 |                                                              0.000
  106.28881 |                                                              0.000
  108.09032 |******************************                                0.105
  109.89182 |                                                              0.000
  111.69333 |                                                              0.000
  113.49483 |***************                                               0.053
--------------------------------------------------------------------------------



  Time to end of properties =       0.0240 seconds


  Peak dynamic memory used =       0.52 MB 


  Timing analysis for GULP :

--------------------------------------------------------------------------------
  Task / Subroutine                                          Time (Seconds)
--------------------------------------------------------------------------------
  Calculation of phonons                                          0.0040
  Calculation of scattering                                       0.0000
--------------------------------------------------------------------------------
  Total CPU time                                                  0.0240
--------------------------------------------------------------------------------


  LAMMPS file written on channel 26


  Job Finished at 12:33.13  1st July       2013                               

