88
Atoms. Timestep: 0
1 50.993 53.067 57.215
1 50.5698 52.5397 55.966
1 49.4293 51.582 55.9305
1 48.7698 51.16 57.1265
1 49.2095 51.7078 58.4244
1 50.2852 52.6487 58.4574
1 50.1992 53.8323 59.349
1 50.8191 54.9831 58.6529
1 51.2941 54.5221 57.3243
1 51.1949 55.3938 56.1958
1 50.7553 54.846 54.8981
1 50.4384 53.4558 54.7983
1 49.2496 53.0272 54.0195
1 48.6296 51.8761 54.7151
1 47.2025 51.7362 54.7398
1 46.5216 51.3047 55.9847
1 47.2936 51.0216 57.1593
1 46.8213 51.4884 58.4869
1 48.0087 51.9127 59.2704
1 47.9266 53.0556 60.1323
1 49.0434 54.0304 60.1746
1 48.4642 55.3876 60.3253
1 49.0645 56.5019 59.6516
1 50.2644 56.297 58.804
1 50.1568 57.1956 57.6292
1 50.6148 56.7504 56.3455
1 49.8115 57.0392 55.1309
1 49.8997 55.8592 54.2344
1 48.7519 55.4448 53.4816
1 48.4235 54.003 53.3695
1 46.9472 53.8633 53.401
1 46.3469 52.749 54.0746
1 45.1402 52.9509 54.9138
1 45.2489 52.0594 56.0951
1 44.7925 52.5105 57.378
1 45.5926 52.2211 58.5938
1 45.5075 53.4016 59.489
1 46.655 53.8116 60.246
1 46.9873 55.2528 60.3669
1 46.1604 56.2362 59.7294
1 46.7816 57.3894 59.0322
1 48.2094 57.5213 58.9953
1 48.8837 57.9489 57.7446
1 48.1075 58.228 56.5709
1 48.5788 57.7644 55.2424
1 47.3925 57.3369 54.46
1 47.4777 56.1967 53.5936
1 46.3623 55.2194 53.5423
1 45.1977 55.4156 54.3564
1 44.5765 54.2624 55.0536
1 44.1047 54.7288 56.3806
1 44.2115 53.868 57.5229
1 44.6535 54.4188 58.8277
1 44.9738 55.8119 58.9463
1 44.8622 56.7025 57.765
1 44.4349 56.17 56.5036
1 45.1099 56.5948 55.2524
1 46.1888 57.5385 55.3038
1 46.6308 58.0893 56.6085
1 45.979 57.6779 57.8182
2 51.9477 52.1115 56.4873
3 52.0106 50.7136 57.0548
4 52.1287 50.5242 58.4369
4 52.1863 49.2282 58.9634
4 52.1273 48.1218 58.1077
4 52.0114 48.3112 56.7254
5 54.0516 52.7099 53.1638
6 56.1503 53.5509 52.9686
4 51.9537 49.6071 56.1988
7 53.1229 52.8039 55.7963
7 54.367 51.9158 55.7564
7 55.5338 52.6051 55.048
8 55.1627 52.959 53.6279
9 55.8949 53.9189 51.6317
10 52.1754 51.3775 59.0975
10 52.2773 49.0819 60.0297
10 52.1726 47.122 58.514
10 51.9675 47.4571 56.0657
10 51.8655 49.7527 55.1323
11 52.8379 53.0773 54.7804
11 53.3555 53.7334 56.3162
11 54.1327 50.982 55.2454
11 54.6617 51.6529 56.7724
11 55.8147 53.515 55.5785
11 56.4083 51.9545 55.0361
11 55.6442 53.0396 51.0384
11 55.0623 54.6206 51.5847
11 56.7745 54.3931 51.1962
88
Atoms. Timestep: 1
1 59.3377 31.9734 29.7052
1 76.5137 53.388 80.4104
1 67.2925 41.0252 37.8666
1 46.6931 26.0662 69.6215
1 46.4984 25.8326 69.0676
1 76.768 52.8442 65.8611
1 74.7274 46.8724 65.3107
1 73.6294 44.8197 66.5154
1 71.261 42.5793 72.0713
1 70.4758 70.3753 42.1741
1 70.6402 70.5818 42.6872
1 61.7617 30.7578 44.0746
1 66.1338 35.4869 44.4099
1 67.2228 37.5201 43.1558
1 31.0622 34.2849 42.9515
1 32.3285 35.4694 39.7868
1 52.1908 28.1349 70.2882
1 53.7107 27.0465 66.4773
1 50.2241 25.6641 64.4665
1 48.2405 55.3049 86.774
1 45.801 52.6522 86.4821
1 46.9394 48.9703 86.1669
1 62.4169 77.6979 68.7877
1 59.3944 77.8959 71.2148
1 59.3779 75.9836 74.2817
1 71.1702 64.5721 40.9452
1 73.3319 63.4615 44.4467
1 73.1492 67.0378 46.7783
1 43.4642 56.1403 27.2722
1 44.6572 59.516 27.6738
1 48.4457 60.2969 27.5616
1 32.9734 31.5658 44.9426
1 36.212 31.1098 42.7321
1 35.8767 33.5186 39.5936
1 24.2988 45.0108 72.4146
1 22.1842 45.8575 69.2004
1 22.4311 42.6844 66.9069
1 51.7035 53.2262 86.298
1 50.8636 49.3575 85.9706
1 29.759 74.5898 69.6492
1 28.0816 71.4816 71.5132
1 64.6344 74.9166 70.5211
1 62.7855 73.8127 73.8517
1 43.0224 80.8903 43.8049
1 41.7 82.0701 47.3157
1 44.8701 83.2071 49.3212
1 46.9548 54.094 27.1412
1 49.9801 56.6664 27.2682
1 20.1676 61.6004 48.1246
1 21.8314 64.7121 46.2359
1 23.0467 63.495 42.8266
1 25.7872 41.46 72.0153
1 24.6439 40.0389 68.6482
1 32.8133 75.6606 71.6707
1 33.1088 73.3342 74.8015
1 22.1682 59.686 42.4889
1 20.4053 58.5762 45.8012
1 48.0114 82.7 47.0964
1 46.8653 81.2759 43.7163
1 30.1654 70.76 74.6352
2 51.9524 52.1168 56.4829
3 52.0084 50.7167 57.0499
4 52.1229 50.5207 58.4428
4 52.1895 49.2257 58.9706
4 52.1206 48.1172 58.11
4 52.0079 48.3093 56.7343
5 54.054 52.713 53.1577
6 56.151 53.5505 52.969
4 51.9557 49.6047 56.193
7 53.1263 52.7983 55.7948
7 54.3617 51.9199 55.7584
7 55.5352 52.6064 55.055
8 55.1655 52.956 53.6334
9 55.8912 53.9215 51.6285
10 52.1672 51.3933 59.0996
10 52.2968 49.0808 60.0357
10 52.143 47.1254 58.5076
10 51.982 47.478 56.0473
10 51.8696 49.7481 55.1356
11 52.8364 53.0795 54.7816
11 53.3568 53.7368 56.2969
11 54.1335 50.9864 55.2066
11 54.6699 51.6524 56.7909
11 55.8326 53.5371 55.6057
11 56.3901 51.9512 55.0319
11 55.6471 53.024 51.0476
11 55.0692 54.5979 51.5744
11 56.7571 54.403 51.1786
88
Atoms. Timestep: 2
1 59.2599 32.186 29.9882
1 76.2544 53.3743 80.1575
1 67.2926 41.0251 37.8666
1 650818 780818 1.85092e+06
1 -650725 -780766 -1.85078e+06
1 76.7681 52.8441 65.861
1 74.735 46.8865 65.3024
1 73.6218 44.8056 66.5237
1 71.2611 42.5792 72.0713
1 -1.96308e+06 -2.46526e+06 -6.12515e+06
1 1.96322e+06 2.4654e+06 6.12524e+06
1 61.7618 30.7577 44.0746
1 66.1265 35.4732 44.4183
1 67.2301 37.5337 43.1473
1 31.0621 34.2848 42.9516
1 32.3286 35.4695 39.7867
1 52.1908 28.1349 70.2882
1 53.7107 27.0465 66.4773
1 50.2241 25.6641 64.4665
1 48.2406 55.305 86.774
1 45.8009 52.6521 86.4821
1 46.9394 48.9702 86.1669
1 62.417 77.6979 68.7877
1 59.3944 77.896 71.2147
1 59.3779 75.9836 74.2819
1 71.1702 64.5721 40.9453
1 73.3318 63.4615 44.4467
1 73.1492 67.0378 46.7783
1 43.4642 56.1402 27.2722
1 44.6572 59.5161 27.6738
1 48.4457 60.2969 27.5616
1 32.9734 31.5658 44.9426
1 36.212 31.1098 42.7321
1 35.8767 33.5186 39.5936
1 24.2988 45.0108 72.4146
1 22.1842 45.8575 69.2004
1 22.4311 42.6845 66.9069
1 51.7035 53.2262 86.298
1 50.8636 49.3575 85.9706
1 29.759 74.5898 69.6491
1 28.0816 71.4816 71.5132
1 64.6344 74.9166 70.5211
1 62.7855 73.8127 73.8517
1 43.0224 80.8903 43.8049
1 41.7 82.0701 47.3157
1 44.8701 83.2071 49.3212
1 46.9548 54.094 27.1412
1 49.9801 56.6664 27.2682
1 20.1676 61.6005 48.1246
1 21.8314 64.7121 46.236
1 23.0467 63.495 42.8265
1 25.7872 41.46 72.0153
1 24.6439 40.0389 68.6482
1 32.8133 75.6606 71.6707
1 33.1088 73.3342 74.8015
1 22.1683 59.686 42.4889
1 20.4053 58.5761 45.8012
1 48.0114 82.7 47.0964
1 46.8653 81.2759 43.7162
1 30.1654 70.76 74.6352
2 52.2905 51.916 56.4532
3 52.0084 50.7165 57.05
4 52.1229 50.5209 58.4427
4 52.1896 49.2256 58.9705
4 52.1205 48.1173 58.1101
4 52.008 48.3095 56.734
5 54.0541 52.713 53.1577
6 56.1511 53.5506 52.969
4 51.9557 49.6048 56.1934
7 53.1248 52.8006 55.7944
7 54.362 51.9197 55.7584
7 55.5351 52.6068 55.0552
8 55.1655 52.9561 53.6332
9 55.8914 53.9212 51.6285
10 52.1673 51.3912 59.099
10 52.2962 49.0808 60.0357
10 52.1438 47.1239 58.5084
10 51.9813 47.4767 56.0486
10 51.8697 49.7481 55.1341
11 52.8369 53.0787 54.7812
11 53.3561 53.7365 56.2978
11 54.1337 50.9881 55.2089
11 54.6685 51.6523 56.7881
11 55.8321 53.5334 55.6031
11 56.3915 51.9504 55.0322
11 55.6471 53.0251 51.0479
11 55.0663 54.5996 51.5748
11 56.7576 54.4028 51.179
88
Atoms. Timestep: 3
1 59.1866 32.3941 30.2678
1 76.0016 53.3586 79.9072
1 67.2928 41.0251 37.8666
1 650818 780818 1.85092e+06
1 -650725 -780766 -1.85078e+06
1 76.7683 52.8441 65.861
1 74.7412 46.8982 65.2955
1 73.6155 44.7938 66.5306
1 71.2612 42.5791 72.0713
1 -1.96308e+06 -2.46526e+06 -6.12515e+06
1 1.96322e+06 2.4654e+06 6.12524e+06
1 61.7619 30.7576 44.0746
1 66.1204 35.4618 44.4253
1 67.2362 37.5451 43.1403
1 31.0621 34.2848 42.9517
1 32.3286 35.4695 39.7866
1 52.1908 28.1349 70.2881
1 53.7107 27.0465 66.4773
1 50.2241 25.6641 64.4665
1 48.2407 55.3051 86.774
1 45.8008 52.652 86.4821
1 46.9394 48.9702 86.1669
1 62.417 77.6979 68.7877
1 59.3944 77.896 71.2146
1 59.3779 75.9835 74.282
1 71.1703 64.5721 40.9453
1 73.3318 63.4616 44.4467
1 73.1492 67.0378 46.7783
1 43.4642 56.14 27.2722
1 44.6572 59.5162 27.6739
1 48.4457 60.2969 27.5616
1 32.9734 31.5658 44.9426
1 36.212 31.1098 42.7321
1 35.8767 33.5186 39.5937
1 24.2988 45.0108 72.4146
1 22.1842 45.8575 69.2004
1 22.4311 42.6845 66.9069
1 51.7035 53.2262 86.298
1 50.8636 49.3575 85.9706
1 29.759 74.5898 69.6491
1 28.0816 71.4816 71.5132
1 64.6344 74.9166 70.5211
1 62.7855 73.8127 73.8517
1 43.0224 80.8903 43.8049
1 41.7 82.0701 47.3157
1 44.8701 83.2071 49.3212
1 46.9548 54.094 27.1412
1 49.9801 56.6664 27.2682
1 20.1676 61.6005 48.1246
1 21.8314 64.7121 46.236
1 23.0467 63.495 42.8265
1 25.7872 41.46 72.0153
1 24.6439 40.0389 68.6482
1 32.8133 75.6606 71.6707
1 33.1088 73.3342 74.8015
1 22.1683 59.686 42.4889
1 20.4053 58.5761 45.8012
1 48.0114 82.7 47.0964
1 46.8653 81.2758 43.7162
1 30.1654 70.76 74.6353
2 52.6138 51.7251 56.4247
3 52.01 50.7143 57.0499
4 52.1227 50.5213 58.4426
4 52.1896 49.2255 58.9704
4 52.1205 48.1174 58.1102
4 52.008 48.3096 56.7336
5 54.0541 52.713 53.1578
6 56.1511 53.5506 52.9691
4 51.9555 49.6047 56.1939
7 53.1256 52.8013 55.7938
7 54.3625 51.92 55.758
7 55.535 52.6071 55.0553
8 55.1655 52.9561 53.633
9 55.8915 53.9209 51.6285
10 52.1691 51.3895 59.0984
10 52.2957 49.0807 60.0356
10 52.1447 47.1226 58.509
10 51.9807 47.4755 56.0499
10 51.8715 49.7481 55.1328
11 52.8342 53.0762 54.781
11 53.3533 53.7356 56.3015
11 54.1338 50.9895 55.211
11 54.6671 51.6522 56.7858
11 55.8317 53.5302 55.6008
11 56.3927 51.9497 55.0325
11 55.647 53.026 51.0482
11 55.0638 54.6011 51.5752
11 56.758 54.4027 51.1793
88
Atoms. Timestep: 4
1 59.1176 32.5978 30.5438
1 75.7552 53.3411 79.6594
1 67.2929 41.0251 37.8666
1 650818 780818 1.85092e+06
1 -650725 -780766 -1.85078e+06
1 76.7684 52.844 65.8609
1 74.7466 46.9083 65.2896
1 73.6102 44.7838 66.5365
1 71.2613 42.579 72.0713
1 -1.96308e+06 -2.46526e+06 -6.12515e+06
1 1.96322e+06 2.4654e+06 6.12524e+06
1 61.762 30.7574 44.0746
1 66.1151 35.452 44.4314
1 67.2415 37.5549 43.1342
1 31.062 34.2848 42.9518
1 32.3287 35.4695 39.7865
1 52.1908 28.1349 70.2881
1 53.7106 27.0465 66.4773
1 50.2241 25.6641 64.4666
1 48.2408 55.3052 86.774
1 45.8007 52.6519 86.4821
1 46.9394 48.9702 86.1669
1 62.417 77.6979 68.7877
1 59.3943 77.8961 71.2145
1 59.3779 75.9834 74.2821
1 71.1703 64.5721 40.9453
1 73.3318 63.4616 44.4467
1 73.1492 67.0377 46.7783
1 43.4641 56.1399 27.2722
1 44.6573 59.5164 27.6739
1 48.4457 60.2969 27.5616
1 32.9734 31.5658 44.9426
1 36.212 31.1098 42.7321
1 35.8766 33.5186 39.5937
1 24.2988 45.0108 72.4146
1 22.1842 45.8575 69.2004
1 22.4311 42.6845 66.9069
1 51.7035 53.2262 86.298
1 50.8636 49.3575 85.9706
1 29.759 74.5898 69.6491
1 28.0816 71.4816 71.5131
1 64.6344 74.9166 70.5211
1 62.7855 73.8127 73.8517
1 43.0224 80.8903 43.8049
1 41.7 82.0701 47.3157
1 44.8701 83.2071 49.3212
1 46.9548 54.094 27.1412
1 49.9801 56.6664 27.2682
1 20.1676 61.6005 48.1246
1 21.8313 64.7121 46.236
1 23.0467 63.495 42.8265
1 25.7872 41.4599 72.0153
1 24.6439 40.0389 68.6482
1 32.8134 75.6607 71.6707
1 33.1088 73.3342 74.8015
1 22.1683 59.686 42.4889
1 20.4053 58.5761 45.8012
1 48.0114 82.7 47.0965
1 46.8653 81.2758 43.7162
1 30.1655 70.76 74.6353
2 52.936 51.5359 56.3969
3 52.0063 50.7145 57.0499
4 52.1223 50.5216 58.4425
4 52.1896 49.2255 58.9704
4 52.1204 48.1176 58.1103
4 52.0081 48.3098 56.7333
5 54.0542 52.713 53.1579
6 56.1511 53.5506 52.9691
4 51.9548 49.6044 56.1946
7 53.1222 52.8042 55.7935
7 54.3634 51.9209 55.7573
7 55.5349 52.6073 55.0554
8 55.1655 52.9562 53.6329
9 55.8916 53.9207 51.6285
10 52.1722 51.388 59.0978
10 52.2951 49.0806 60.0356
10 52.1454 47.1215 58.5096
10 51.9801 47.4743 56.0511
10 51.8744 49.7482 55.1316
11 52.8302 53.0711 54.7805
11 53.3503 53.7332 56.3079
11 54.1339 50.9907 55.2128
11 54.666 51.652 56.7837
11 55.8314 53.5276 55.5989
11 56.3937 51.9491 55.0328
11 55.6469 53.0267 51.0483
11 55.0617 54.6023 51.5756
11 56.7584 54.4025 51.1797
88
Atoms. Timestep: 5
1 59.0529 32.7973 30.8165
1 75.5149 53.3218 79.414
1 67.2931 41.025 37.8665
1 650818 780818 1.85092e+06
1 -650725 -780766 -1.85078e+06
1 76.7685 52.844 65.8609
1 74.7514 46.9171 65.2844
1 73.6054 44.7749 66.5417
1 71.2614 42.5788 72.0713
1 -1.96308e+06 -2.46526e+06 -6.12515e+06
1 1.96322e+06 2.4654e+06 6.12524e+06
1 61.7622 30.7573 44.0747
1 66.1105 35.4434 44.4367
1 67.2461 37.5636 43.1289
1 31.062 34.2847 42.9519
1 32.3287 35.4696 39.7864
1 52.1908 28.1349 70.2881
1 53.7106 27.0465 66.4773
1 50.2241 25.6641 64.4666
1 48.2409 55.3052 86.774
1 45.8006 52.6519 86.4821
1 46.9394 48.9702 86.1669
1 62.417 77.6979 68.7877
1 59.3943 77.8962 71.2144
1 59.3779 75.9833 74.2822
1 71.1703 64.5721 40.9453
1 73.3318 63.4616 44.4467
1 73.1492 67.0377 46.7783
1 43.4641 56.1398 27.2722
1 44.6573 59.5165 27.6739
1 48.4457 60.2969 27.5616
1 32.9735 31.5658 44.9426
1 36.212 31.1098 42.7321
1 35.8766 33.5186 39.5937
1 24.2988 45.0109 72.4146
1 22.1842 45.8575 69.2004
1 22.4311 42.6845 66.9068
1 51.7034 53.2262 86.298
1 50.8636 49.3575 85.9706
1 29.7589 74.5897 69.6491
1 28.0816 71.4817 71.5131
1 64.6344 74.9166 70.5211
1 62.7855 73.8128 73.8517
1 43.0224 80.8903 43.8049
1 41.7 82.0701 47.3157
1 44.8701 83.2071 49.3212
1 46.9548 54.094 27.1412
1 49.9801 56.6664 27.2682
1 20.1676 61.6006 48.1246
1 21.8313 64.7121 46.236
1 23.0467 63.495 42.8265
1 25.7872 41.4599 72.0154
1 24.6439 40.0389 68.6482
1 32.8134 75.6607 71.6707
1 33.1088 73.3342 74.8015
1 22.1683 59.686 42.4889
1 20.4053 58.5761 45.8012
1 48.0115 82.7001 47.0965
1 46.8653 81.2758 43.7162
1 30.1655 70.76 74.6353
2 53.2435 51.3549 56.3702
3 52.0053 50.7149 57.0491
4 52.1219 50.5218 58.4424
4 52.1896 49.2255 58.9703
4 52.1204 48.1177 58.1104
4 52.0081 48.3099 56.733
5 54.0542 52.713 53.158
6 56.1511 53.5507 52.9691
4 51.9537 49.6039 56.1955
7 53.1206 52.8048 55.7938
7 54.3646 51.9223 55.7563
7 55.5349 52.6076 55.0554
8 55.1655 52.9563 53.6327
9 55.8917 53.9204 51.6285
10 52.1752 51.3868 59.0972
10 52.2947 49.0805 60.0356
10 52.1462 47.1207 58.5101
10 51.9796 47.4733 56.0523
10 51.8776 49.7482 55.1307
11 52.8271 53.0641 54.779
11 53.3491 53.7299 56.3155
11 54.134 50.9918 55.2145
11 54.6649 51.6518 56.7818
11 55.8312 53.5253 55.5972
11 56.3946 51.9487 55.0331
11 55.6469 53.0273 51.0485
11 55.0599 54.6032 51.576
11 56.7587 54.4023 51.18
88
Atoms. Timestep: 6
1 58.9921 32.9926 31.0857
1 75.2806 53.3008 79.1711
1 67.2933 41.025 37.8665
1 650818 780818 1.85092e+06
1 -650725 -780766 -1.85078e+06
1 76.7687 52.8439 65.8608
1 74.7556 46.925 65.2798
1 73.6012 44.767 66.5463
1 71.2615 42.5787 72.0713
1 -1.96308e+06 -2.46526e+06 -6.12515e+06
1 1.96322e+06 2.4654e+06 6.12524e+06
1 61.7623 30.7572 44.0747
1 66.1064 35.4356 44.4415
1 67.2503 37.5713 43.1241
1 31.0619 34.2847 42.952
1 32.3288 35.4696 39.7862
1 52.1908 28.1348 70.2881
1 53.7106 27.0465 66.4773
1 50.2242 25.6641 64.4666
1 48.241 55.3053 86.774
1 45.8005 52.6518 86.4821
1 46.9394 48.9702 86.1669
1 62.417 77.6979 68.7876
1 59.3943 77.8962 71.2143
1 59.378 75.9833 74.2823
1 71.1703 64.5721 40.9453
1 73.3318 63.4616 44.4467
1 73.1492 67.0377 46.7783
1 43.464 56.1396 27.2722
1 44.6573 59.5166 27.6739
1 48.4457 60.2969 27.5616
1 32.9735 31.5658 44.9426
1 36.212 31.1098 42.7321
1 35.8766 33.5186 39.5937
1 24.2988 45.0109 72.4146
1 22.1842 45.8575 69.2004
1 22.431 42.6845 66.9068
1 51.7034 53.2262 86.298
1 50.8636 49.3575 85.9706
1 29.7589 74.5897 69.6491
1 28.0816 71.4817 71.5131
1 64.6344 74.9166 70.5211
1 62.7855 73.8128 73.8517
1 43.0224 80.8903 43.8049
1 41.7 82.0701 47.3157
1 44.8701 83.2071 49.3212
1 46.9548 54.094 27.1412
1 49.9801 56.6664 27.2682
1 20.1676 61.6006 48.1246
1 21.8313 64.7121 46.2361
1 23.0467 63.495 42.8264
1 25.7872 41.4599 72.0154
1 24.6439 40.0388 68.6482
1 32.8134 75.6607 71.6707
1 33.1088 73.3342 74.8015
1 22.1683 59.686 42.4889
1 20.4053 58.5761 45.8012
1 48.0115 82.7001 47.0965
1 46.8653 81.2758 43.7162
1 30.1655 70.76 74.6353
2 53.5368 51.1814 56.3449
3 52.0071 50.7152 57.0475
4 52.1213 50.5219 58.4423
4 52.1897 49.2255 58.9702
4 52.1203 48.1177 58.1104
4 52.0081 48.31 56.7327
5 54.0542 52.713 53.158
6 56.1512 53.5507 52.9691
4 51.9521 49.6035 56.1964
7 53.1203 52.8034 55.7945
7 54.366 51.9241 55.755
7 55.5348 52.6077 55.0555
8 55.1655 52.9563 53.6325
9 55.8917 53.9203 51.6286
10 52.1775 51.3857 59.0969
10 52.2943 49.0805 60.0355
10 52.1469 47.1199 58.5105
10 51.9791 47.4723 56.0533
10 51.8805 49.7481 55.1301
11 52.8258 53.057 54.7771
11 53.3498 53.7264 56.3224
11 54.1341 50.9929 55.2159
11 54.664 51.6518 56.7801
11 55.8311 53.5234 55.5957
11 56.3953 51.9483 55.0334
11 55.6468 53.0279 51.0486
11 55.0583 54.604 51.5764
11 56.759 54.4021 51.1803
88
Atoms. Timestep: 7
1 58.9351 33.1838 31.3517
1 75.0521 53.2782 78.9308
1 67.2934 41.0249 37.8665
1 650818 780818 1.85092e+06
1 -650725 -780766 -1.85078e+06
1 76.7688 52.8438 65.8608
1 74.7594 46.9322 65.2756
1 73.5974 44.7599 66.5505
1 71.2617 42.5786 72.0712
1 -1.96308e+06 -2.46526e+06 -6.12515e+06
1 1.96322e+06 2.4654e+06 6.12524e+06
1 61.7624 30.7571 44.0747
1 66.1026 35.4287 44.4458
1 67.254 37.5783 43.1198
1 31.0619 34.2847 42.9521
1 32.3288 35.4697 39.7861
1 52.1908 28.1348 70.2881
1 53.7106 27.0465 66.4773
1 50.2242 25.6641 64.4666
1 48.2411 55.3054 86.7741
1 45.8005 52.6517 86.4821
1 46.9394 48.9702 86.1669
1 62.417 77.6979 68.7876
1 59.3943 77.8963 71.2142
1 59.378 75.9832 74.2824
1 71.1703 64.5721 40.9453
1 73.3318 63.4616 44.4467
1 73.1492 67.0377 46.7783
1 43.464 56.1395 27.2721
1 44.6574 59.5167 27.6739
1 48.4458 60.2969 27.5616
1 32.9735 31.5658 44.9426
1 36.212 31.1098 42.7321
1 35.8766 33.5186 39.5937
1 24.2988 45.0109 72.4146
1 22.1842 45.8575 69.2004
1 22.431 42.6845 66.9068
1 51.7034 53.2262 86.298
1 50.8637 49.3575 85.9706
1 29.7589 74.5897 69.6491
1 28.0816 71.4817 71.5131
1 64.6344 74.9166 70.5211
1 62.7855 73.8128 73.8517
1 43.0224 80.8903 43.8049
1 41.7 82.0701 47.3157
1 44.8701 83.2071 49.3212
1 46.9548 54.094 27.1412
1 49.9801 56.6664 27.2682
1 20.1676 61.6006 48.1246
1 21.8313 64.7121 46.2361
1 23.0467 63.495 42.8264
1 25.7873 41.4599 72.0154
1 24.6439 40.0388 68.6482
1 32.8134 75.6607 71.6708
1 33.1088 73.3342 74.8015
1 22.1683 59.686 42.4889
1 20.4053 58.576 45.8012
1 48.0115 82.7001 47.0965
1 46.8653 81.2758 43.7161
1 30.1655 70.76 74.6353
2 53.8167 51.0153 56.321
3 52.0118 50.7152 57.0455
4 52.1207 50.5219 58.4421
4 52.1897 49.2254 58.9702
4 52.1202 48.1178 58.1105
4 52.0082 48.3101 56.7324
5 54.0543 52.713 53.1581
6 56.1512 53.5508 52.9691
4 51.9503 49.6031 56.1973
7 53.1212 52.8002 55.7956
7 54.3677 51.9262 55.7536
7 55.5348 52.6079 55.0555
8 55.1655 52.9564 53.6324
9 55.8918 53.9201 51.6286
10 52.1789 51.3848 59.0966
10 52.2939 49.0804 60.0355
10 52.1476 47.1193 58.5109
10 51.9787 47.4713 56.0543
10 51.8829 49.7479 55.1296
11 52.8259 53.0508 54.7752
11 53.3515 53.7231 56.3279
11 54.1343 50.9939 55.2173
11 54.6633 51.6518 56.7784
11 55.831 53.5219 55.5944
11 56.3959 51.948 55.0337
11 55.6467 53.0283 51.0486
11 55.0569 54.6047 51.5768
11 56.7593 54.402 51.1806
88
Atoms. Timestep: 8
1 58.8816 33.3712 31.6143
1 74.8291 53.2541 78.6928
1 67.2936 41.0249 37.8665
1 650818 780818 1.85092e+06
1 -650725 -780766 -1.85078e+06
1 76.769 52.8438 65.8608
1 74.7629 46.9387 65.2717
1 73.5939 44.7534 66.5544
1 71.2618 42.5785 72.0712
1 -1.96308e+06 -2.46526e+06 -6.12515e+06
1 1.96322e+06 2.4654e+06 6.12524e+06
1 61.7625 30.757 44.0747
1 66.0992 35.4223 44.4497
1 67.2574 37.5847 43.1159
1 31.0618 34.2846 42.9522
1 32.3289 35.4697 39.786
1 52.1908 28.1348 70.2881
1 53.7106 27.0465 66.4773
1 50.2242 25.6641 64.4666
1 48.2412 55.3055 86.7741
1 45.8004 52.6516 86.4821
1 46.9394 48.9701 86.1669
1 62.417 77.6979 68.7876
1 59.3943 77.8964 71.2141
1 59.378 75.9831 74.2825
1 71.1703 64.5721 40.9454
1 73.3318 63.4617 44.4467
1 73.1492 67.0377 46.7783
1 43.464 56.1394 27.2721
1 44.6574 59.5169 27.6739
1 48.4458 60.2969 27.5616
1 32.9735 31.5657 44.9427
1 36.212 31.1098 42.7321
1 35.8766 33.5186 39.5937
1 24.2988 45.0109 72.4146
1 22.1842 45.8575 69.2004
1 22.431 42.6845 66.9068
1 51.7034 53.2262 86.298
1 50.8637 49.3575 85.9706
1 29.7588 74.5897 69.6491
1 28.0815 71.4817 71.513
1 64.6344 74.9166 70.5211
1 62.7855 73.8128 73.8517
1 43.0223 80.8903 43.8049
1 41.7 82.0701 47.3157
1 44.87 83.2071 49.3213
1 46.9548 54.094 27.1412
1 49.9801 56.6664 27.2682
1 20.1676 61.6006 48.1246
1 21.8313 64.7122 46.2361
1 23.0468 63.495 42.8264
1 25.7873 41.4599 72.0154
1 24.6439 40.0388 68.6481
1 32.8135 75.6607 71.6708
1 33.1088 73.3342 74.8015
1 22.1683 59.686 42.4889
1 20.4053 58.576 45.8012
1 48.0115 82.7001 47.0965
1 46.8653 81.2758 43.7161
1 30.1655 70.76 74.6354
2 54.0836 50.8565 56.2984
3 52.0194 50.7146 57.0429
4 52.1199 50.522 58.442
4 52.1897 49.2254 58.9701
4 52.1202 48.1179 58.1106
4 52.0082 48.3101 56.7322
5 54.0543 52.713 53.1582
6 56.1512 53.5508 52.9691
4 51.9482 49.6027 56.1981
7 53.1232 52.7953 55.7971
7 54.3694 51.9285 55.752
7 55.5348 52.6081 55.0555
8 55.1655 52.9565 53.6322
9 55.8918 53.9199 51.6286
10 52.1796 51.3839 59.0965
10 52.2935 49.0803 60.0355
10 52.1483 47.1189 58.5112
10 51.9783 47.4705 56.0552
10 51.8848 49.7477 55.1294
11 52.827 53.0456 54.7737
11 53.3536 53.7202 56.332
11 54.1346 50.995 55.2184
11 54.6627 51.6519 56.7768
11 55.831 53.5205 55.5932
11 56.3964 51.9477 55.034
11 55.6466 53.0287 51.0486
11 55.0558 54.6052 51.5772
11 56.7596 54.4018 51.1809
88
Atoms. Timestep: 9
1 58.8316 33.5547 31.8738
1 74.6114 53.2287 78.4574
1 67.2937 41.0248 37.8665
1 650818 780818 1.85092e+06
1 -650725 -780766 -1.85078e+06
1 76.7691 52.8437 65.8607
1 74.7661 46.9447 65.2682
1 73.5907 44.7474 66.5579
1 71.2619 42.5784 72.0712
1 -1.96308e+06 -2.46526e+06 -6.12515e+06
1 1.96322e+06 2.4654e+06 6.12524e+06
1 61.7627 30.7569 44.0747
1 66.096 35.4164 44.4534
1 67.2606 37.5906 43.1123
1 31.0618 34.2846 42.9524
1 32.329 35.4697 39.7859
1 52.1908 28.1348 70.288
1 53.7105 27.0465 66.4773
1 50.2242 25.6641 64.4666
1 48.2413 55.3056 86.7741
1 45.8003 52.6516 86.4821
1 46.9394 48.9701 86.1669
1 62.417 77.6979 68.7876
1 59.3943 77.8964 71.214
1 59.378 75.9831 74.2826
1 71.1703 64.572 40.9454
1 73.3318 63.4617 44.4467
1 73.1492 67.0377 46.7782
1 43.4639 56.1392 27.2721
1 44.6574 59.517 27.6739
1 48.4458 60.2969 27.5616
1 32.9735 31.5657 44.9427
1 36.212 31.1098 42.7321
1 35.8766 33.5186 39.5937
1 24.2988 45.0109 72.4147
1 22.1842 45.8575 69.2004
1 22.431 42.6845 66.9068
1 51.7034 53.2262 86.298
1 50.8637 49.3575 85.9706
1 29.7588 74.5897 69.6491
1 28.0815 71.4817 71.513
1 64.6344 74.9166 70.5211
1 62.7855 73.8128 73.8517
1 43.0223 80.8903 43.8049
1 41.6999 82.0701 47.3157
1 44.87 83.2071 49.3213
1 46.9548 54.094 27.1412
1 49.9801 56.6664 27.2682
1 20.1676 61.6007 48.1247
1 21.8313 64.7122 46.2362
1 23.0468 63.495 42.8264
1 25.7873 41.4599 72.0154
1 24.6439 40.0388 68.6481
1 32.8135 75.6607 71.6708
1 33.1088 73.3342 74.8015
1 22.1683 59.686 42.4889
1 20.4053 58.576 45.8012
1 48.0115 82.7001 47.0965
1 46.8654 81.2758 43.7161
1 30.1655 70.76 74.6354
2 54.3379 50.7048 56.2768
3 52.0296 50.7134 57.04
4 52.119 50.5221 58.4418
4 52.1897 49.2254 58.97
4 52.1201 48.1179 58.1107
4 52.0082 48.3102 56.732
5 54.0543 52.713 53.1582
6 56.1513 53.5508 52.9691
4 51.946 49.6024 56.1987
7 53.1265 52.7886 55.7988
7 54.3712 51.931 55.7503
7 55.5348 52.6082 55.0554
8 55.1656 52.9565 53.6321
9 55.8919 53.9198 51.6287
10 52.1797 51.3832 59.0964
10 52.2931 49.0803 60.0354
10 52.149 47.1185 58.5116
10 51.9778 47.4697 56.056
10 51.8862 49.7474 55.1293
11 52.8285 53.0414 54.7728
11 53.3556 53.7174 56.335
11 54.135 50.9962 55.2195
11 54.6622 51.652 56.7751
11 55.831 53.5194 55.5922
11 56.3968 51.9475 55.0343
11 55.6465 53.0291 51.0486
11 55.0548 54.6056 51.5776
11 56.7599 54.4016 51.1812
84
Atoms. Timestep: 10
1 58.7849 33.7346 32.1301
1 74.3989 53.2019 78.2243
1 67.2939 41.0248 37.8665
1 76.7693 52.8436 65.8607
1 74.7691 46.9503 65.265
1 73.5877 44.7418 66.5612
1 71.262 42.5783 72.0712
1 61.7628 30.7568 44.0748
1 66.0931 35.4109 44.4567
1 67.2635 37.596 43.1089
1 31.0617 34.2846 42.9525
1 32.329 35.4698 39.7858
1 52.1908 28.1348 70.288
1 53.7105 27.0465 66.4773
1 50.2242 25.6641 64.4666
1 48.2414 55.3057 86.7741
1 45.8002 52.6515 86.4821
1 46.9395 48.9701 86.1669
1 62.417 77.6979 68.7876
1 59.3943 77.8965 71.2139
1 59.378 75.983 74.2827
1 71.1703 64.572 40.9454
1 73.3318 63.4617 44.4467
1 73.1492 67.0377 46.7782
1 43.4639 56.1391 27.2721
1 44.6575 59.5171 27.674
1 48.4458 60.2969 27.5616
1 32.9735 31.5657 44.9427
1 36.212 31.1098 42.7321
1 35.8766 33.5186 39.5937
1 24.2988 45.0109 72.4147
1 22.1842 45.8575 69.2004
1 22.431 42.6845 66.9068
1 51.7034 53.2262 86.298
1 50.8637 49.3575 85.9706
1 29.7588 74.5897 69.649
1 28.0815 71.4817 71.513
1 64.6344 74.9166 70.5211
1 62.7854 73.8128 73.8517
1 43.0223 80.8903 43.8049
1 41.6999 82.0701 47.3157
1 44.87 83.2071 49.3213
1 46.9548 54.0941 27.1412
1 49.9801 56.6664 27.2682
1 20.1676 61.6007 48.1247
1 21.8313 64.7122 46.2362
1 23.0468 63.495 42.8263
1 25.7873 41.4599 72.0155
1 24.6439 40.0388 68.6481
1 32.8135 75.6607 71.6708
1 33.1088 73.3342 74.8015
1 22.1683 59.686 42.4889
1 20.4053 58.576 45.8011
1 48.0115 82.7001 47.0965
1 46.8654 81.2758 43.7161
1 30.1655 70.7599 74.6354
2 54.5799 50.5603 56.2563
3 52.0425 50.7114 57.0367
4 52.1182 50.5222 58.4416
4 52.1897 49.2254 58.97
4 52.12 48.118 58.1108
4 52.0083 48.3102 56.7319
5 54.0544 52.713 53.1583
6 56.1513 53.5509 52.9691
4 51.9437 49.6022 56.1992
7 53.1311 52.7803 55.8008
7 54.3732 51.9335 55.7486
7 55.5348 52.6084 55.0553
8 55.1656 52.9566 53.6319
9 55.8919 53.9197 51.6287
10 52.1794 51.3826 59.0964
10 52.2927 49.0802 60.0354
10 52.1496 47.1181 58.5118
10 51.9774 47.4689 56.0568
10 51.8873 49.747 55.1293
11 52.8302 53.0376 54.7724
11 53.3575 53.7146 56.3372
11 54.1355 50.9974 55.2204
11 54.6619 51.6523 56.7735
11 55.8311 53.5184 55.5913
11 56.3972 51.9473 55.0346
11 55.6464 53.0294 51.0486
11 55.0539 54.6059 51.578
11 56.7601 54.4015 51.1815
