88
Atoms. Timestep: 0
1 50.993 53.067 57.215
1 50.5698 52.5397 55.966
1 49.4293 51.582 55.9305
1 48.7698 51.16 57.1265
1 49.2095 51.7078 58.4244
1 50.2852 52.6487 58.4574
1 50.1992 53.8323 59.349
1 50.8191 54.9831 58.6529
1 51.2941 54.5221 57.3243
1 51.1949 55.3938 56.1958
1 50.7553 54.846 54.8981
1 50.4384 53.4558 54.7983
1 49.2496 53.0272 54.0195
1 48.6296 51.8761 54.7151
1 47.2025 51.7362 54.7398
1 46.5216 51.3047 55.9847
1 47.2936 51.0216 57.1593
1 46.8213 51.4884 58.4869
1 48.0087 51.9127 59.2704
1 47.9266 53.0556 60.1323
1 49.0434 54.0304 60.1746
1 48.4642 55.3876 60.3253
1 49.0645 56.5019 59.6516
1 50.2644 56.297 58.804
1 50.1568 57.1956 57.6292
1 50.6148 56.7504 56.3455
1 49.8115 57.0392 55.1309
1 49.8997 55.8592 54.2344
1 48.7519 55.4448 53.4816
1 48.4235 54.003 53.3695
1 46.9472 53.8633 53.401
1 46.3469 52.749 54.0746
1 45.1402 52.9509 54.9138
1 45.2489 52.0594 56.0951
1 44.7925 52.5105 57.378
1 45.5926 52.2211 58.5938
1 45.5075 53.4016 59.489
1 46.655 53.8116 60.246
1 46.9873 55.2528 60.3669
1 46.1604 56.2362 59.7294
1 46.7816 57.3894 59.0322
1 48.2094 57.5213 58.9953
1 48.8837 57.9489 57.7446
1 48.1075 58.228 56.5709
1 48.5788 57.7644 55.2424
1 47.3925 57.3369 54.46
1 47.4777 56.1967 53.5936
1 46.3623 55.2194 53.5423
1 45.1977 55.4156 54.3564
1 44.5765 54.2624 55.0536
1 44.1047 54.7288 56.3806
1 44.2115 53.868 57.5229
1 44.6535 54.4188 58.8277
1 44.9738 55.8119 58.9463
1 44.8622 56.7025 57.765
1 44.4349 56.17 56.5036
1 45.1099 56.5948 55.2524
1 46.1888 57.5385 55.3038
1 46.6308 58.0893 56.6085
1 45.979 57.6779 57.8182
2 51.9477 52.1115 56.4873
3 52.0106 50.7136 57.0548
4 52.1287 50.5242 58.4369
4 52.1863 49.2282 58.9634
4 52.1273 48.1218 58.1077
4 52.0114 48.3112 56.7254
5 54.0516 52.7099 53.1638
6 56.1503 53.5509 52.9686
4 51.9537 49.6071 56.1988
7 53.1229 52.8039 55.7963
7 54.367 51.9158 55.7564
7 55.5338 52.6051 55.048
8 55.1627 52.959 53.6279
9 55.8949 53.9189 51.6317
10 52.1754 51.3775 59.0975
10 52.2773 49.0819 60.0297
10 52.1726 47.122 58.514
10 51.9675 47.4571 56.0657
10 51.8655 49.7527 55.1323
11 52.8379 53.0773 54.7804
11 53.3555 53.7334 56.3162
11 54.1327 50.982 55.2454
11 54.6617 51.6529 56.7724
11 55.8147 53.515 55.5785
11 56.4083 51.9545 55.0361
11 55.6442 53.0396 51.0384
11 55.0623 54.6206 51.5847
11 56.7745 54.3931 51.1962
88
Atoms. Timestep: 1
1 59.3376 31.9735 29.7053
1 76.5135 53.3881 80.4103
1 67.2925 41.0252 37.8666
1 46.6931 26.0662 69.6215
1 46.4984 25.8326 69.0676
1 76.768 52.8442 65.8611
1 74.7274 46.8724 65.3107
1 73.6294 44.8197 66.5154
1 71.261 42.5793 72.0713
1 70.4758 70.3753 42.1741
1 70.6402 70.5818 42.6872
1 61.7617 30.7578 44.0746
1 66.1338 35.4869 44.4099
1 67.2228 37.5201 43.1558
1 31.0622 34.2849 42.9515
1 32.3285 35.4694 39.7868
1 52.1908 28.1349 70.2882
1 53.7107 27.0465 66.4773
1 50.2241 25.6641 64.4665
1 48.2405 55.3049 86.774
1 45.801 52.6522 86.4821
1 46.9394 48.9703 86.1669
1 62.4169 77.6979 68.7877
1 59.3944 77.8959 71.2148
1 59.3779 75.9836 74.2817
1 71.1702 64.5721 40.9452
1 73.3319 63.4615 44.4467
1 73.1492 67.0378 46.7783
1 43.4642 56.1403 27.2722
1 44.6572 59.516 27.6738
1 48.4457 60.2969 27.5616
1 32.9734 31.5658 44.9426
1 36.212 31.1098 42.7321
1 35.8767 33.5186 39.5936
1 24.2988 45.0108 72.4146
1 22.1842 45.8575 69.2004
1 22.4311 42.6844 66.9069
1 51.7035 53.2262 86.298
1 50.8636 49.3575 85.9706
1 29.759 74.5898 69.6492
1 28.0816 71.4816 71.5132
1 64.6344 74.9166 70.5211
1 62.7855 73.8127 73.8517
1 43.0224 80.8903 43.8049
1 41.7 82.0701 47.3157
1 44.8701 83.2071 49.3212
1 46.9548 54.094 27.1412
1 49.9801 56.6664 27.2682
1 20.1676 61.6004 48.1246
1 21.8314 64.7121 46.2359
1 23.0467 63.495 42.8266
1 25.7872 41.46 72.0153
1 24.6439 40.0389 68.6482
1 32.8133 75.6606 71.6707
1 33.1088 73.3342 74.8015
1 22.1682 59.686 42.4889
1 20.4053 58.5762 45.8012
1 48.0114 82.7 47.0964
1 46.8653 81.2759 43.7163
1 30.1654 70.76 74.6352
2 51.9572 52.1192 56.4803
3 52.0084 50.7167 57.0499
4 52.1229 50.5207 58.4428
4 52.1895 49.2257 58.9706
4 52.1206 48.1172 58.11
4 52.0079 48.3093 56.7343
5 54.0551 52.7133 53.1581
6 56.1502 53.5497 52.9705
4 51.9557 49.6047 56.193
7 53.1221 52.7918 55.7991
7 54.3615 51.9238 55.7568
7 55.5315 52.6056 55.0533
8 55.1653 52.9565 53.6319
9 55.891 53.9218 51.6274
10 52.1672 51.3933 59.0996
10 52.2968 49.0808 60.0357
10 52.143 47.1254 58.5076
10 51.982 47.478 56.0473
10 51.8696 49.7481 55.1356
11 52.8253 53.0902 54.742
11 53.3658 53.7729 56.3171
11 54.1244 50.9501 55.1867
11 54.6814 51.6422 56.8305
11 55.8435 53.5725 55.6264
11 56.4241 51.9259 55.0314
11 55.6471 53.024 51.0476
11 55.0692 54.5979 51.5744
11 56.7571 54.403 51.1786
88
Atoms. Timestep: 2
1 59.2719 32.1532 29.9445
1 76.2944 53.3765 80.1966
1 67.2926 41.0251 37.8666
1 650818 780818 1.85092e+06
1 -650725 -780766 -1.85078e+06
1 76.7681 52.8441 65.861
1 74.735 46.8865 65.3024
1 73.6218 44.8056 66.5237
1 71.2611 42.5792 72.0713
1 -1.96308e+06 -2.46526e+06 -6.12515e+06
1 1.96322e+06 2.4654e+06 6.12524e+06
1 61.7618 30.7577 44.0746
1 66.1265 35.4732 44.4183
1 67.2301 37.5337 43.1473
1 31.0621 34.2848 42.9516
1 32.3286 35.4695 39.7867
1 52.1908 28.1349 70.2882
1 53.7107 27.0465 66.4773
1 50.2241 25.6641 64.4665
1 48.2406 55.305 86.774
1 45.8009 52.6521 86.4821
1 46.9394 48.9702 86.1669
1 62.417 77.6979 68.7877
1 59.3944 77.896 71.2147
1 59.3779 75.9836 74.2819
1 71.1702 64.5721 40.9453
1 73.3318 63.4615 44.4467
1 73.1492 67.0378 46.7783
1 43.4642 56.1402 27.2722
1 44.6572 59.5161 27.6738
1 48.4457 60.2969 27.5616
1 32.9734 31.5658 44.9426
1 36.212 31.1098 42.7321
1 35.8767 33.5186 39.5936
1 24.2988 45.0108 72.4146
1 22.1842 45.8575 69.2004
1 22.4311 42.6845 66.9069
1 51.7035 53.2262 86.298
1 50.8636 49.3575 85.9706
1 29.759 74.5898 69.6491
1 28.0816 71.4816 71.5132
1 64.6344 74.9166 70.5211
1 62.7855 73.8127 73.8517
1 43.0224 80.8903 43.8049
1 41.7 82.0701 47.3157
1 44.8701 83.2071 49.3212
1 46.9548 54.094 27.1412
1 49.9801 56.6664 27.2682
1 20.1676 61.6005 48.1246
1 21.8314 64.7121 46.236
1 23.0467 63.495 42.8265
1 25.7872 41.46 72.0153
1 24.6439 40.0389 68.6482
1 32.8133 75.6606 71.6707
1 33.1088 73.3342 74.8015
1 22.1683 59.686 42.4889
1 20.4053 58.5761 45.8012
1 48.0114 82.7 47.0964
1 46.8653 81.2759 43.7162
1 30.1654 70.76 74.6352
2 52.2471 51.9517 56.4528
3 52.0084 50.7166 57.05
4 52.1229 50.5209 58.4427
4 52.1896 49.2256 58.9705
4 52.1205 48.1173 58.1101
4 52.008 48.3095 56.734
5 54.0563 52.7135 53.1586
6 56.1494 53.5489 52.9719
4 51.9557 49.6048 56.1934
7 53.1164 52.7883 55.8025
7 54.3615 51.9268 55.7555
7 55.5282 52.6053 55.052
8 55.1652 52.957 53.6303
9 55.891 53.9218 51.6264
10 52.1673 51.3912 59.099
10 52.2962 49.0808 60.0357
10 52.1438 47.1239 58.5084
10 51.9813 47.4767 56.0486
10 51.8697 49.7481 55.1341
11 52.816 53.0987 54.708
11 53.3727 53.8039 56.3348
11 54.1171 50.9209 55.1707
11 54.6902 51.6333 56.8617
11 55.8527 53.5993 55.6418
11 56.4543 51.9029 55.031
11 55.647 53.0251 51.0479
11 55.0663 54.5996 51.5747
11 56.7576 54.4029 51.1789
88
Atoms. Timestep: 3
1 59.2095 32.3296 30.1811
1 76.0801 53.3635 79.9847
1 67.2928 41.0251 37.8666
1 650818 780818 1.85092e+06
1 -650725 -780766 -1.85078e+06
1 76.7683 52.8441 65.861
1 74.7412 46.8982 65.2955
1 73.6155 44.7938 66.5306
1 71.2612 42.5791 72.0713
1 -1.96308e+06 -2.46526e+06 -6.12515e+06
1 1.96322e+06 2.4654e+06 6.12524e+06
1 61.7619 30.7576 44.0746
1 66.1204 35.4618 44.4253
1 67.2362 37.5451 43.1403
1 31.0621 34.2848 42.9517
1 32.3286 35.4695 39.7866
1 52.1908 28.1349 70.2881
1 53.7107 27.0465 66.4773
1 50.2241 25.6641 64.4665
1 48.2407 55.3051 86.774
1 45.8008 52.652 86.4821
1 46.9394 48.9702 86.1669
1 62.417 77.6979 68.7877
1 59.3944 77.896 71.2146
1 59.3779 75.9835 74.282
1 71.1703 64.5721 40.9453
1 73.3318 63.4616 44.4467
1 73.1492 67.0378 46.7783
1 43.4642 56.14 27.2722
1 44.6572 59.5162 27.6739
1 48.4457 60.2969 27.5616
1 32.9734 31.5658 44.9426
1 36.212 31.1098 42.7321
1 35.8767 33.5186 39.5937
1 24.2988 45.0108 72.4146
1 22.1842 45.8575 69.2004
1 22.4311 42.6845 66.9069
1 51.7035 53.2262 86.298
1 50.8636 49.3575 85.9706
1 29.759 74.5898 69.6491
1 28.0816 71.4816 71.5132
1 64.6344 74.9166 70.5211
1 62.7855 73.8127 73.8517
1 43.0224 80.8903 43.8049
1 41.7 82.0701 47.3157
1 44.8701 83.2071 49.3212
1 46.9548 54.094 27.1412
1 49.9801 56.6664 27.2682
1 20.1676 61.6005 48.1246
1 21.8314 64.7121 46.236
1 23.0467 63.495 42.8265
1 25.7872 41.46 72.0153
1 24.6439 40.0389 68.6482
1 32.8133 75.6606 71.6707
1 33.1088 73.3342 74.8015
1 22.1683 59.686 42.4889
1 20.4053 58.5761 45.8012
1 48.0114 82.7 47.0964
1 46.8653 81.2758 43.7162
1 30.1654 70.76 74.6353
2 52.5249 51.7922 56.4265
3 52.0098 50.7147 57.0499
4 52.1227 50.5213 58.4426
4 52.1896 49.2255 58.9704
4 52.1205 48.1174 58.1102
4 52.008 48.3096 56.7336
5 54.0574 52.7138 53.1591
6 56.1486 53.5482 52.9733
4 51.9555 49.6047 56.1939
7 53.1139 52.7835 55.8055
7 54.3617 51.9297 55.7541
7 55.5254 52.6051 55.0509
8 55.165 52.9575 53.6287
9 55.8909 53.9217 51.6255
10 52.1689 51.3895 59.0984
10 52.2957 49.0807 60.0356
10 52.1447 47.1226 58.509
10 51.9807 47.4755 56.0499
10 51.8713 49.7481 55.1328
11 52.8054 53.1044 54.6792
11 53.3767 53.8297 56.3524
11 54.1108 50.8959 55.157
11 54.6979 51.6257 56.8886
11 55.8606 53.6224 55.655
11 56.4803 51.883 55.0306
11 55.647 53.0259 51.0479
11 55.0637 54.6012 51.575
11 56.7581 54.4027 51.1792
88
Atoms. Timestep: 4
1 59.1503 32.503 30.4153
1 75.8703 53.3492 79.7745
1 67.2929 41.0251 37.8666
1 650818 780818 1.85092e+06
1 -650725 -780766 -1.85078e+06
1 76.7684 52.844 65.8609
1 74.7466 46.9083 65.2896
1 73.6102 44.7838 66.5365
1 71.2613 42.579 72.0713
1 -1.96308e+06 -2.46526e+06 -6.12515e+06
1 1.96322e+06 2.4654e+06 6.12524e+06
1 61.762 30.7574 44.0746
1 66.1151 35.452 44.4314
1 67.2415 37.5549 43.1342
1 31.062 34.2848 42.9518
1 32.3287 35.4695 39.7865
1 52.1908 28.1349 70.2881
1 53.7106 27.0465 66.4773
1 50.2241 25.6641 64.4666
1 48.2408 55.3052 86.774
1 45.8007 52.6519 86.4821
1 46.9394 48.9702 86.1669
1 62.417 77.6979 68.7877
1 59.3943 77.8961 71.2145
1 59.3779 75.9834 74.2821
1 71.1703 64.5721 40.9453
1 73.3318 63.4616 44.4467
1 73.1492 67.0377 46.7783
1 43.4641 56.1399 27.2722
1 44.6573 59.5164 27.6739
1 48.4457 60.2969 27.5616
1 32.9734 31.5658 44.9426
1 36.212 31.1098 42.7321
1 35.8766 33.5186 39.5937
1 24.2988 45.0108 72.4146
1 22.1842 45.8575 69.2004
1 22.4311 42.6845 66.9069
1 51.7035 53.2262 86.298
1 50.8636 49.3575 85.9706
1 29.759 74.5898 69.6491
1 28.0816 71.4816 71.5131
1 64.6344 74.9166 70.5211
1 62.7855 73.8127 73.8517
1 43.0224 80.8903 43.8049
1 41.7 82.0701 47.3157
1 44.8701 83.2071 49.3212
1 46.9548 54.094 27.1412
1 49.9801 56.6664 27.2682
1 20.1676 61.6005 48.1246
1 21.8313 64.7121 46.236
1 23.0467 63.495 42.8265
1 25.7872 41.4599 72.0153
1 24.6439 40.0389 68.6482
1 32.8134 75.6607 71.6707
1 33.1088 73.3342 74.8015
1 22.1683 59.686 42.4889
1 20.4053 58.5761 45.8012
1 48.0114 82.7 47.0965
1 46.8653 81.2758 43.7162
1 30.1655 70.76 74.6353
2 52.7908 51.6404 56.4017
3 52.0122 50.7114 57.0494
4 52.1224 50.5216 58.4425
4 52.1896 49.2255 58.9703
4 52.1204 48.1176 58.1103
4 52.0081 48.3098 56.7333
5 54.0585 52.714 53.1596
6 56.1478 53.5475 52.9746
4 51.955 49.6045 56.1945
7 53.1145 52.7773 55.8076
7 54.3622 51.9326 55.7527
7 55.523 52.605 55.0499
8 55.1647 52.9579 53.6272
9 55.8908 53.9218 51.6246
10 52.1717 51.388 59.0978
10 52.2951 49.0806 60.0356
10 52.1454 47.1215 58.5096
10 51.9801 47.4743 56.0511
10 51.874 49.7482 55.1317
11 52.7946 53.1068 54.6543
11 53.3791 53.8505 56.3702
11 54.1054 50.8743 55.1453
11 54.7046 51.6192 56.9116
11 55.8674 53.6422 55.6662
11 56.5025 51.8659 55.0303
11 55.6468 53.0267 51.0479
11 55.0615 54.6025 51.5752
11 56.7585 54.4026 51.1794
88
Atoms. Timestep: 5
1 59.094 32.6733 30.6469
1 75.6649 53.3337 79.5661
1 67.2931 41.025 37.8665
1 650818 780818 1.85092e+06
1 -650725 -780766 -1.85078e+06
1 76.7685 52.844 65.8609
1 74.7514 46.9171 65.2844
1 73.6054 44.7749 66.5417
1 71.2614 42.5788 72.0713
1 -1.96308e+06 -2.46526e+06 -6.12515e+06
1 1.96322e+06 2.4654e+06 6.12524e+06
1 61.7622 30.7573 44.0747
1 66.1105 35.4434 44.4367
1 67.2461 37.5636 43.1289
1 31.062 34.2847 42.9519
1 32.3287 35.4696 39.7864
1 52.1908 28.1349 70.2881
1 53.7106 27.0465 66.4773
1 50.2241 25.6641 64.4666
1 48.2409 55.3052 86.774
1 45.8006 52.6519 86.4821
1 46.9394 48.9702 86.1669
1 62.417 77.6979 68.7877
1 59.3943 77.8962 71.2144
1 59.3779 75.9833 74.2822
1 71.1703 64.5721 40.9453
1 73.3318 63.4616 44.4467
1 73.1492 67.0377 46.7783
1 43.4641 56.1398 27.2722
1 44.6573 59.5165 27.6739
1 48.4457 60.2969 27.5616
1 32.9735 31.5658 44.9426
1 36.212 31.1098 42.7321
1 35.8766 33.5186 39.5937
1 24.2988 45.0109 72.4146
1 22.1842 45.8575 69.2004
1 22.4311 42.6845 66.9068
1 51.7034 53.2262 86.298
1 50.8636 49.3575 85.9706
1 29.7589 74.5897 69.6491
1 28.0816 71.4817 71.5131
1 64.6344 74.9166 70.5211
1 62.7855 73.8128 73.8517
1 43.0224 80.8903 43.8049
1 41.7 82.0701 47.3157
1 44.8701 83.2071 49.3212
1 46.9548 54.094 27.1412
1 49.9801 56.6664 27.2682
1 20.1676 61.6006 48.1246
1 21.8313 64.7121 46.236
1 23.0467 63.495 42.8265
1 25.7872 41.4599 72.0154
1 24.6439 40.0389 68.6482
1 32.8134 75.6607 71.6707
1 33.1088 73.3342 74.8015
1 22.1683 59.686 42.4889
1 20.4053 58.5761 45.8012
1 48.0115 82.7001 47.0965
1 46.8653 81.2758 43.7162
1 30.1655 70.76 74.6353
2 53.0581 51.4874 56.3767
3 52.01 50.7119 57.049
4 52.122 50.5219 58.4424
4 52.1897 49.2255 58.9703
4 52.1204 48.1177 58.1104
4 52.0081 48.3099 56.733
5 54.0596 52.7143 53.16
6 56.1471 53.5468 52.9759
4 51.9541 49.604 56.1953
7 53.1109 52.7731 55.8106
7 54.363 51.9356 55.7511
7 55.5211 52.605 55.049
8 55.1645 52.9583 53.6258
9 55.8907 53.9218 51.6237
10 52.1749 51.3868 59.0972
10 52.2946 49.0805 60.0356
10 52.1462 47.1207 58.5101
10 51.9795 47.4732 56.0523
10 51.8771 49.7482 55.1307
11 52.785 53.1061 54.6325
11 53.3816 53.8666 56.3877
11 54.1008 50.8558 55.1352
11 54.7103 51.6136 56.9314
11 55.8733 53.6594 55.6759
11 56.5216 51.851 55.0301
11 55.6467 53.0273 51.0478
11 55.0596 54.6036 51.5754
11 56.759 54.4025 51.1796
88
Atoms. Timestep: 6
1 59.0406 32.8407 30.8762
1 75.4639 53.3169 79.3595
1 67.2932 41.025 37.8665
1 650818 780818 1.85092e+06
1 -650725 -780766 -1.85078e+06
1 76.7687 52.8439 65.8608
1 74.7556 46.925 65.2798
1 73.6012 44.767 66.5463
1 71.2615 42.5787 72.0713
1 -1.96308e+06 -2.46526e+06 -6.12515e+06
1 1.96322e+06 2.4654e+06 6.12524e+06
1 61.7623 30.7572 44.0747
1 66.1064 35.4356 44.4415
1 67.2503 37.5713 43.1241
1 31.0619 34.2847 42.952
1 32.3288 35.4696 39.7862
1 52.1908 28.1348 70.2881
1 53.7106 27.0465 66.4773
1 50.2242 25.6641 64.4666
1 48.241 55.3053 86.774
1 45.8005 52.6518 86.4821
1 46.9394 48.9702 86.1669
1 62.417 77.6979 68.7876
1 59.3943 77.8962 71.2143
1 59.378 75.9833 74.2823
1 71.1703 64.5721 40.9453
1 73.3318 63.4616 44.4467
1 73.1492 67.0377 46.7783
1 43.464 56.1396 27.2722
1 44.6573 59.5166 27.6739
1 48.4457 60.2969 27.5616
1 32.9735 31.5658 44.9426
1 36.212 31.1098 42.7321
1 35.8766 33.5186 39.5937
1 24.2988 45.0109 72.4146
1 22.1842 45.8575 69.2004
1 22.431 42.6845 66.9068
1 51.7034 53.2262 86.298
1 50.8636 49.3575 85.9706
1 29.7589 74.5897 69.6491
1 28.0816 71.4817 71.5131
1 64.6344 74.9166 70.5211
1 62.7855 73.8128 73.8517
1 43.0224 80.8903 43.8049
1 41.7 82.0701 47.3157
1 44.8701 83.2071 49.3212
1 46.9548 54.094 27.1412
1 49.9801 56.6664 27.2682
1 20.1676 61.6006 48.1246
1 21.8313 64.7121 46.2361
1 23.0467 63.495 42.8264
1 25.7872 41.4599 72.0154
1 24.6439 40.0388 68.6482
1 32.8134 75.6607 71.6707
1 33.1088 73.3342 74.8015
1 22.1683 59.686 42.4889
1 20.4053 58.5761 45.8012
1 48.0115 82.7001 47.0965
1 46.8653 81.2758 43.7162
1 30.1655 70.76 74.6353
2 53.3134 51.3408 56.3531
3 52.0101 50.7125 57.0478
4 52.1215 50.522 58.4423
4 52.1897 49.2255 58.9702
4 52.1203 48.1177 58.1104
4 52.0081 48.31 56.7327
5 54.0607 52.7145 53.1605
6 56.1463 53.5461 52.9772
4 51.9528 49.6036 56.1962
7 53.1097 52.767 55.8137
7 54.364 51.9386 55.7493
7 55.5195 52.605 55.0482
8 55.1642 52.9587 53.6244
9 55.8906 53.9218 51.6229
10 52.1777 51.3858 59.0968
10 52.2942 49.0805 60.0356
10 52.1469 47.1199 58.5105
10 51.979 47.4723 56.0533
10 51.8802 49.7481 55.13
11 52.7776 53.1035 54.6133
11 53.3852 53.8792 56.404
11 54.0969 50.84 55.1266
11 54.7154 51.6088 56.9482
11 55.8783 53.6742 55.6841
11 56.5379 51.8383 55.0299
11 55.6466 53.0278 51.0475
11 55.0579 54.6045 51.5756
11 56.7594 54.4025 51.1797
88
Atoms. Timestep: 7
1 58.99 33.0051 31.103
1 75.2671 53.299 79.1546
1 67.2934 41.0249 37.8665
1 650818 780818 1.85092e+06
1 -650725 -780766 -1.85078e+06
1 76.7688 52.8438 65.8608
1 74.7594 46.9322 65.2756
1 73.5974 44.7599 66.5505
1 71.2617 42.5786 72.0712
1 -1.96308e+06 -2.46526e+06 -6.12515e+06
1 1.96322e+06 2.4654e+06 6.12524e+06
1 61.7624 30.7571 44.0747
1 66.1026 35.4287 44.4458
1 67.254 37.5783 43.1198
1 31.0619 34.2847 42.9521
1 32.3288 35.4697 39.7861
1 52.1908 28.1348 70.2881
1 53.7106 27.0465 66.4773
1 50.2242 25.6641 64.4666
1 48.2411 55.3054 86.7741
1 45.8005 52.6517 86.4821
1 46.9394 48.9702 86.1669
1 62.417 77.6979 68.7876
1 59.3943 77.8963 71.2142
1 59.378 75.9832 74.2824
1 71.1703 64.5721 40.9453
1 73.3318 63.4616 44.4467
1 73.1492 67.0377 46.7783
1 43.464 56.1395 27.2721
1 44.6574 59.5167 27.6739
1 48.4458 60.2969 27.5616
1 32.9735 31.5658 44.9426
1 36.212 31.1098 42.7321
1 35.8766 33.5186 39.5937
1 24.2988 45.0109 72.4146
1 22.1842 45.8575 69.2004
1 22.431 42.6845 66.9068
1 51.7034 53.2262 86.298
1 50.8637 49.3575 85.9706
1 29.7589 74.5897 69.6491
1 28.0816 71.4817 71.5131
1 64.6344 74.9166 70.5211
1 62.7855 73.8128 73.8517
1 43.0224 80.8903 43.8049
1 41.7 82.0701 47.3157
1 44.8701 83.2071 49.3212
1 46.9548 54.094 27.1412
1 49.9801 56.6664 27.2682
1 20.1676 61.6006 48.1246
1 21.8313 64.7121 46.2361
1 23.0467 63.495 42.8264
1 25.7873 41.4599 72.0154
1 24.6439 40.0388 68.6482
1 32.8134 75.6607 71.6708
1 33.1088 73.3342 74.8015
1 22.1683 59.686 42.4889
1 20.4053 58.576 45.8012
1 48.0115 82.7001 47.0965
1 46.8653 81.2758 43.7161
1 30.1655 70.76 74.6353
2 53.5574 51.2001 56.3307
3 52.0126 50.7129 57.0461
4 52.1209 50.522 58.4422
4 52.1897 49.2255 58.9702
4 52.1202 48.1178 58.1105
4 52.0082 48.3101 56.7324
5 54.0618 52.7148 53.1609
6 56.1456 53.5455 52.9784
4 51.9512 49.6031 56.1971
7 53.1104 52.7592 55.8168
7 54.3652 51.9417 55.7475
7 55.5181 52.6051 55.0475
8 55.1639 52.959 53.6231
9 55.8905 53.9219 51.6221
10 52.1799 51.3848 59.0964
10 52.2938 49.0804 60.0355
10 52.1476 47.1193 58.5109
10 51.9786 47.4713 56.0543
10 51.883 49.748 55.1296
11 52.7724 53.1004 54.5966
11 53.3896 53.8892 56.4181
11 54.0936 50.8265 55.1193
11 54.7198 51.6048 56.9625
11 55.8827 53.687 55.6912
11 56.5518 51.8272 55.0298
11 55.6464 53.0283 51.0472
11 55.0564 54.6053 51.5757
11 56.7598 54.4024 51.1799
88
Atoms. Timestep: 8
1 58.9421 33.1668 31.3275
1 75.0744 53.2801 78.9515
1 67.2936 41.0249 37.8665
1 650818 780818 1.85092e+06
1 -650725 -780766 -1.85078e+06
1 76.769 52.8438 65.8608
1 74.7629 46.9387 65.2717
1 73.5939 44.7534 66.5544
1 71.2618 42.5785 72.0712
1 -1.96308e+06 -2.46526e+06 -6.12515e+06
1 1.96322e+06 2.4654e+06 6.12524e+06
1 61.7625 30.757 44.0747
1 66.0992 35.4223 44.4497
1 67.2574 37.5847 43.1159
1 31.0618 34.2846 42.9522
1 32.3289 35.4697 39.786
1 52.1908 28.1348 70.2881
1 53.7106 27.0465 66.4773
1 50.2242 25.6641 64.4666
1 48.2412 55.3055 86.7741
1 45.8004 52.6516 86.4821
1 46.9394 48.9701 86.1669
1 62.417 77.6979 68.7876
1 59.3943 77.8964 71.2141
1 59.378 75.9831 74.2825
1 71.1703 64.5721 40.9454
1 73.3318 63.4617 44.4467
1 73.1492 67.0377 46.7783
1 43.464 56.1394 27.2721
1 44.6574 59.5169 27.6739
1 48.4458 60.2969 27.5616
1 32.9735 31.5657 44.9427
1 36.212 31.1098 42.7321
1 35.8766 33.5186 39.5937
1 24.2988 45.0109 72.4146
1 22.1842 45.8575 69.2004
1 22.431 42.6845 66.9068
1 51.7034 53.2262 86.298
1 50.8637 49.3575 85.9706
1 29.7588 74.5897 69.6491
1 28.0815 71.4817 71.513
1 64.6344 74.9166 70.5211
1 62.7855 73.8128 73.8517
1 43.0223 80.8903 43.8049
1 41.7 82.0701 47.3157
1 44.87 83.2071 49.3213
1 46.9548 54.094 27.1412
1 49.9801 56.6664 27.2682
1 20.1676 61.6006 48.1246
1 21.8313 64.7122 46.2361
1 23.0468 63.495 42.8264
1 25.7873 41.4599 72.0154
1 24.6439 40.0388 68.6481
1 32.8135 75.6607 71.6708
1 33.1088 73.3342 74.8015
1 22.1683 59.686 42.4889
1 20.4053 58.576 45.8012
1 48.0115 82.7001 47.0965
1 46.8653 81.2758 43.7161
1 30.1655 70.76 74.6354
2 53.7905 51.065 56.3095
3 52.0175 50.713 57.044
4 52.1203 50.522 58.442
4 52.1897 49.2254 58.9701
4 52.1202 48.1179 58.1106
4 52.0082 48.3101 56.7322
5 54.0628 52.7151 53.1612
6 56.1448 53.5448 52.9796
4 51.9494 49.6026 56.1979
7 53.113 52.7498 55.82
7 54.3666 51.9448 55.7457
7 55.517 52.6052 55.0469
8 55.1636 52.9594 53.6219
9 55.8904 53.922 51.6213
10 52.1813 51.384 59.0962
10 52.2934 49.0803 60.0355
10 52.1483 47.1189 58.5113
10 51.9782 47.4705 56.0552
10 51.8854 49.7478 55.1293
11 52.769 53.0972 54.5824
11 53.3941 53.8971 56.4299
11 54.0909 50.815 55.113
11 54.7236 51.6014 56.9747
11 55.8864 53.698 55.6972
11 56.5638 51.8176 55.0297
11 55.6462 53.0287 51.0469
11 55.0551 54.606 51.5757
11 56.7602 54.4023 51.18
88
Atoms. Timestep: 9
1 58.8967 33.3257 31.5496
1 74.8855 53.2601 78.7501
1 67.2937 41.0248 37.8665
1 650818 780818 1.85092e+06
1 -650725 -780766 -1.85078e+06
1 76.7691 52.8437 65.8607
1 74.7661 46.9447 65.2682
1 73.5907 44.7474 66.5579
1 71.2619 42.5784 72.0712
1 -1.96308e+06 -2.46526e+06 -6.12515e+06
1 1.96322e+06 2.4654e+06 6.12524e+06
1 61.7627 30.7569 44.0747
1 66.096 35.4164 44.4534
1 67.2606 37.5906 43.1123
1 31.0618 34.2846 42.9524
1 32.329 35.4697 39.7859
1 52.1908 28.1348 70.288
1 53.7105 27.0465 66.4773
1 50.2242 25.6641 64.4666
1 48.2413 55.3056 86.7741
1 45.8003 52.6516 86.4821
1 46.9394 48.9701 86.1669
1 62.417 77.6979 68.7876
1 59.3943 77.8964 71.214
1 59.378 75.9831 74.2826
1 71.1703 64.572 40.9454
1 73.3318 63.4617 44.4467
1 73.1492 67.0377 46.7782
1 43.4639 56.1392 27.2721
1 44.6574 59.517 27.6739
1 48.4458 60.2969 27.5616
1 32.9735 31.5657 44.9427
1 36.212 31.1098 42.7321
1 35.8766 33.5186 39.5937
1 24.2988 45.0109 72.4147
1 22.1842 45.8575 69.2004
1 22.431 42.6845 66.9068
1 51.7034 53.2262 86.298
1 50.8637 49.3575 85.9706
1 29.7588 74.5897 69.6491
1 28.0815 71.4817 71.513
1 64.6344 74.9166 70.5211
1 62.7855 73.8128 73.8517
1 43.0223 80.8903 43.8049
1 41.6999 82.0701 47.3157
1 44.87 83.2071 49.3213
1 46.9548 54.094 27.1412
1 49.9801 56.6664 27.2682
1 20.1676 61.6007 48.1247
1 21.8313 64.7122 46.2362
1 23.0468 63.495 42.8264
1 25.7873 41.4599 72.0154
1 24.6439 40.0388 68.6481
1 32.8135 75.6607 71.6708
1 33.1088 73.3342 74.8015
1 22.1683 59.686 42.4889
1 20.4053 58.576 45.8012
1 48.0115 82.7001 47.0965
1 46.8654 81.2758 43.7161
1 30.1655 70.76 74.6354
2 54.0132 50.9356 56.2893
3 52.0247 50.7126 57.0415
4 52.1196 50.5221 58.4418
4 52.1897 49.2254 58.97
4 52.1201 48.1179 58.1107
4 52.0082 48.3102 56.732
5 54.0639 52.7153 53.1616
6 56.1441 53.5442 52.9807
4 51.9474 49.6023 56.1986
7 53.1173 52.7389 55.8232
7 54.3681 51.9478 55.7438
7 55.5161 52.6054 55.0463
8 55.1633 52.9597 53.6207
9 55.8903 53.922 51.6206
10 52.1822 51.3833 59.0961
10 52.2931 49.0803 60.0354
10 52.1489 47.1185 58.5116
10 51.9778 47.4697 56.056
10 51.8874 49.7476 55.1292
11 52.7668 53.0941 54.5706
11 53.3984 53.9032 56.4397
11 54.0887 50.8053 55.1076
11 54.7271 51.5985 56.9849
11 55.8896 53.7076 55.7023
11 56.5739 51.8093 55.0296
11 55.6461 53.0291 51.0464
11 55.0539 54.6065 51.5757
11 56.7606 54.4023 51.18
84
Atoms. Timestep: 10
1 58.8538 33.4819 31.7694
1 74.7005 53.2392 78.5504
1 67.2939 41.0248 37.8665
1 76.7693 52.8437 65.8607
1 74.7691 46.9503 65.265
1 73.5877 44.7418 66.5612
1 71.262 42.5783 72.0712
1 61.7628 30.7568 44.0748
1 66.0931 35.4109 44.4567
1 67.2635 37.596 43.1089
1 31.0617 34.2846 42.9525
1 32.329 35.4698 39.7858
1 52.1908 28.1348 70.288
1 53.7105 27.0465 66.4773
1 50.2242 25.6641 64.4666
1 48.2414 55.3057 86.7741
1 45.8002 52.6515 86.4821
1 46.9395 48.9701 86.1669
1 62.417 77.6979 68.7876
1 59.3943 77.8965 71.2139
1 59.378 75.983 74.2827
1 71.1703 64.572 40.9454
1 73.3318 63.4617 44.4467
1 73.1492 67.0377 46.7782
1 43.4639 56.1391 27.2721
1 44.6575 59.5171 27.674
1 48.4458 60.2969 27.5616
1 32.9735 31.5657 44.9427
1 36.212 31.1098 42.7321
1 35.8766 33.5186 39.5937
1 24.2988 45.0109 72.4147
1 22.1842 45.8575 69.2004
1 22.431 42.6845 66.9068
1 51.7034 53.2262 86.298
1 50.8637 49.3575 85.9706
1 29.7588 74.5897 69.649
1 28.0815 71.4817 71.513
1 64.6344 74.9166 70.5211
1 62.7854 73.8128 73.8517
1 43.0223 80.8903 43.8049
1 41.6999 82.0701 47.3157
1 44.87 83.2071 49.3213
1 46.9548 54.0941 27.1412
1 49.9801 56.6664 27.2682
1 20.1676 61.6007 48.1247
1 21.8313 64.7122 46.2362
1 23.0468 63.495 42.8263
1 25.7873 41.4599 72.0155
1 24.6439 40.0388 68.6481
1 32.8135 75.6607 71.6708
1 33.1088 73.3342 74.8015
1 22.1683 59.686 42.4889
1 20.4053 58.576 45.8011
1 48.0115 82.7001 47.0965
1 46.8654 81.2758 43.7161
1 30.1655 70.7599 74.6354
2 54.2258 50.8118 56.2701
3 52.0341 50.7118 57.0386
4 52.1188 50.5221 58.4416
4 52.1897 49.2254 58.97
4 52.12 48.118 58.1108
4 52.0083 48.3102 56.7318
5 54.0649 52.7156 53.1619
6 56.1434 53.5436 52.9818
4 51.9453 49.602 56.1993
7 53.1234 52.7264 55.8265
7 54.3697 51.9507 55.742
7 55.5154 52.6056 55.0458
8 55.163 52.96 53.6196
9 55.8902 53.9221 51.6199
10 52.1825 51.3827 59.096
10 52.2927 49.0802 60.0354
10 52.1496 47.1181 58.5118
10 51.9774 47.4689 56.0568
10 51.889 49.7472 55.1292
11 52.7655 53.091 54.5612
11 53.4022 53.9076 56.4478
11 54.087 50.7971 55.103
11 54.7302 51.5962 56.9935
11 55.8924 53.7159 55.7067
11 56.5827 51.802 55.0296
11 55.6459 53.0294 51.046
11 55.0529 54.607 51.5757
11 56.7609 54.4023 51.1801
