
#------------START NPT HEAT -------------------------------------------------------------------

                fix 			1 all npt temp ${T_run} ${T_run} ${Tau_T} iso press 0.0 ${Tau_P}
                fix 			1 all npt temp 0.08267367665 ${T_run} ${Tau_T} iso press 0.0 ${Tau_P}
                fix 			1 all npt temp 0.08267367665 0.08267367665 ${Tau_T} iso press 0.0 ${Tau_P}
                fix 			1 all npt temp 0.08267367665 0.08267367665 1 iso press 0.0 ${Tau_P}
                fix 			1 all npt temp 0.08267367665 0.08267367665 1 iso press 0.0 10
                thermo_style  	custom step temp press vol etotal pe ke
                thermo		1000
                run             	100000
Memory usage per processor = 1.38005 Mbytes
Step Temp Press Volume TotEng PotEng KinEng 
       0            0  -0.80410465     241.0483   -7.4586184   -7.4586184            0 
    1000 6.1186951e-07  -0.28636413    239.14279   -7.4626985   -7.4626994 9.1421908e-07 
    2000 6.480354e-06  0.059068832     237.9441    -7.463222   -7.4632317 9.6825601e-06 
    3000 6.6093384e-05   0.19875774    237.47586   -7.4628313     -7.46293 9.875281e-05 
    4000 0.00063790658   0.16283044    237.61837    -7.461054   -7.4620072 0.00095312213 
    5000 0.0085557971  0.038362018    238.32207   -7.4368644   -7.4496479  0.012783564 
    6000  0.075780341 -0.061306866    241.37398   -7.2193987   -7.3326252   0.11322649 
    7000  0.072079944 -0.058253802    240.78442   -7.2509541   -7.3586517   0.10769757 
    8000  0.077067824   0.13326047    240.49588   -7.2247742   -7.3399244   0.11515017 
    9000  0.090240079 -0.013686345    241.43677   -7.1893371   -7.3241684   0.13483137 
   10000  0.086222855  -0.16532008    241.99561   -7.1951119   -7.3239409   0.12882907 
   11000  0.083022742   0.10442462     240.4629   -7.2239263    -7.347974   0.12404765 
   12000  0.079402781   0.24070914    239.94366    -7.229638   -7.3482769   0.11863892 
   13000  0.081135569  -0.29242108    242.30977   -7.2088479   -7.3300758   0.12122795 
   14000   0.08693395  -0.11772277    241.81172   -7.1948072   -7.3246987   0.12989155 
   15000  0.079527241   0.23176727    240.45205   -7.2080653   -7.3268902   0.11882488 
   16000  0.079802636 -0.020781992    240.98831   -7.2255789   -7.3448153   0.11923636 
   17000  0.083966951  -0.14759656    241.40749   -7.2209425   -7.3464009   0.12545843 
   18000   0.08687733  0.044435167    241.02705   -7.2028482   -7.3326551   0.12980695 
   19000   0.08806276  0.087202005     240.8934   -7.2003878    -7.331966   0.13157815 
   20000  0.081869357  -0.12876952    241.51999   -7.2163522   -7.3386766   0.12232433 
   21000  0.081576462   -0.1030945    241.25652   -7.2243601   -7.3462469   0.12188671 
   22000  0.085722003   0.22248824    240.20131   -7.2132747   -7.3413554   0.12808073 
   23000  0.086662937 -0.023840763     241.3229   -7.2004727   -7.3299593   0.12948662 
   24000   0.08390125   -0.3591416    242.56449   -7.2055209   -7.3308812   0.12536027 
   25000  0.081458647   0.12221304    240.50972   -7.2199845   -7.3416952   0.12171067 
   26000  0.076828101   0.14416412    240.56027   -7.2211065   -7.3358985   0.11479199 
   27000   0.08148874 -0.057152793    241.45698   -7.2078987   -7.3296543   0.12175564 
   28000   0.08650416 -0.029569013    241.37407   -7.2014821   -7.3307315   0.12924938 
   29000  0.085029594  0.074071918     240.7898   -7.2112084   -7.3382546   0.12704617 
   30000  0.084357035 -0.024994594     240.9713    -7.220238   -7.3462793   0.12604127 
   31000  0.081156944  -0.13304835    241.48488   -7.2192663   -7.3405262   0.12125989 
   32000  0.083555419  0.036331417    240.92181   -7.2136264     -7.33847   0.12484355 
   33000  0.088638464   0.18076173    240.58141   -7.1980419   -7.3304803   0.13243833 
   34000  0.077309338  -0.16056591    242.08391   -7.2026692   -7.3181802   0.11551102 
   35000  0.082636327  -0.14033965    241.62103    -7.211951   -7.3354213   0.12347029 
   36000  0.085409407   0.24803471    240.10394   -7.2135338   -7.3411474   0.12761366 
   37000   0.08403237 -0.014710473    241.29832   -7.2039826   -7.3295388   0.12555618 
   38000  0.089081561  -0.24007744    242.02787   -7.2016688   -7.3347692   0.13310038 
   39000  0.086436719  0.077528156    240.85189   -7.2051912   -7.3343398   0.12914861 
   40000  0.080987186   0.16834342    240.64509    -7.207782   -7.3287882   0.12100624 
   41000  0.079554095  -0.13340812    241.58094   -7.2172688   -7.3361338     0.118865 
   42000  0.085870883 -0.088310275    241.24345   -7.2158093   -7.3441124   0.12830318 
   43000  0.081366328   0.21096621    240.40761   -7.2108548   -7.3324275   0.12157274 
   44000  0.090034537 -0.045335812    241.61774   -7.1873194   -7.3218437   0.13452426 
   45000  0.081501539  -0.27758769     242.0408   -7.2176139   -7.3393887   0.12177476 
   46000  0.077891421   0.21582398    240.26872   -7.2208064   -7.3371871   0.11638074 
   47000  0.080286766   0.21341889    240.34608   -7.2146204   -7.3345802   0.11995972 
   48000  0.086457969  -0.24800073    242.07228   -7.2057588   -7.3349392   0.12918036 
   49000  0.084437573 -0.027733751    241.22262   -7.2088076   -7.3349693   0.12616161 
   50000   0.08375651   0.12281382    240.52172    -7.217626     -7.34277     0.125144 
   51000  0.083489602  -0.04818128     241.2876   -7.2115191   -7.3362643   0.12474521 
   52000  0.083509098 -0.070506735    241.53424   -7.2038707    -7.328645   0.12477434 
   53000  0.081891388  0.079867168    240.84069   -7.2120649   -7.3344222   0.12235725 
   54000  0.079853904  0.059800946    240.91212   -7.2144599   -7.3337728   0.11931296 
   55000  0.083099541  -0.11389236      241.747   -7.2016415   -7.3258039    0.1241624 
   56000   0.08264312  0.030939977    241.07531   -7.2084964   -7.3319769   0.12348044 
   57000  0.082865713    0.3236118    239.89273   -7.2141102   -7.3379232   0.12381303 
   58000  0.078683603  -0.22953505     241.6184   -7.2321421   -7.3497065   0.11756437 
   59000  0.081934195  -0.18958192    242.00459   -7.2048836   -7.3273049   0.12242121 
   60000  0.090613144   0.16334665    240.56622   -7.2003281   -7.3357169   0.13538878 
   61000  0.082566969  0.034677182    240.93891   -7.2145378   -7.3379045   0.12336666 
   62000  0.085550741  -0.15445133    241.71918   -7.2063684   -7.3341932   0.12782484 
   63000   0.08342804  0.058462483    241.13167   -7.2007202   -7.3253734   0.12465322 
   64000  0.082861935   0.12261891    240.62886   -7.2132102   -7.3370176   0.12380738 
   65000  0.082396368  -0.11062121    241.49847   -7.2137222   -7.3368339   0.12311176 
   66000  0.085346081   -0.1149377    241.65525   -7.2029325   -7.3304515   0.12751905 
   67000  0.083515636    0.3396608    239.97423   -7.2068118   -7.3315959    0.1247841 
   68000  0.084207516 -0.0035885392    240.87622    -7.220853   -7.3466709   0.12581787 
   69000  0.083121952  -0.43231048    242.71086   -7.2117042      -7.3359   0.12419589 
   70000  0.087801189  0.078926331    240.81655   -7.2054919   -7.3366793   0.13118732 
   71000  0.090466012    0.1543324    240.89563   -7.1860743   -7.3212433   0.13516894 
   72000  0.080289568  -0.14858935    241.58011   -7.2208248   -7.3407887   0.11996391 
   73000  0.078019975 -0.0032211794    241.20806   -7.2146107   -7.3311835   0.11657281 
   74000  0.090710144   0.13760379    240.72478   -7.1963777   -7.3319114   0.13553371 
   75000  0.087601477  -0.02566922    241.40018   -7.1967043   -7.3275932   0.13088893 
   76000  0.089119203  -0.18404411    241.67986   -7.2083412   -7.3414979   0.13315662 
   77000  0.079806099   0.14284574    240.51904   -7.2194518   -7.3386933   0.11924154 
   78000   0.07887851   0.17137275    240.36243   -7.2225549   -7.3404105   0.11785559 
   79000  0.080041629  -0.35580635    242.33495   -7.2206827   -7.3402762   0.11959345 
   80000  0.086927237  -0.10353687    241.38139    -7.210973   -7.3408545   0.12988152 
   81000  0.088680913   0.25538218    240.05262   -7.2102042    -7.342706   0.13250175 
   82000  0.083185784 -0.099639257    241.10815    -7.227216   -7.3515073   0.12429126 
   83000  0.079338142  -0.16131849    241.57124   -7.2223054   -7.3408478   0.11854234 
   84000  0.084786494  0.083300226     240.7425   -7.2126559   -7.3393388   0.12668295 
   85000  0.086749945  0.084400817    240.70912   -7.2115621   -7.3411787   0.12961662 
   86000  0.077131375  -0.14196018    241.51878   -7.2249739    -7.340219   0.11524512 
   87000   0.07502161 -0.0031585586    241.16088   -7.2209083   -7.3330011   0.11209283 
   88000  0.087224088   0.12985599    240.38541   -7.2173279    -7.347653   0.13032505 
   89000  0.085924532 -0.017385197    241.19036   -7.2070412   -7.3354245   0.12838333 
   90000  0.083653334  -0.31470581    242.67299   -7.1928104   -7.3178002   0.12498984 
   91000  0.084742658   0.25753838    240.33636   -7.2018603   -7.3284777   0.12661745 
   92000  0.085245314   0.28280601    239.91514   -7.2163423   -7.3437108   0.12736849 
   93000  0.079896221  -0.18826465    241.98677   -7.2080327   -7.3274089   0.11937619 
   94000  0.085010721 -0.084102303     241.5346   -7.2038612   -7.3308792   0.12701797 
   95000  0.082504957   0.18694711    240.33245   -7.2173544   -7.3406285   0.12327401 
   96000  0.083412478 -0.044106745    241.17946   -7.2158839   -7.3405138   0.12462997 
   97000  0.084474014  -0.18803987    241.71386   -7.2136323   -7.3398484   0.12621606 
   98000  0.091699091   0.08164676    240.80641   -7.2016783   -7.3386897   0.13701134 
   99000  0.085061474   0.11099549    240.82674   -7.2032595   -7.3303533    0.1270938 
  100000   0.08471609  -0.24939771     241.9713    -7.212912   -7.3394897   0.12657775 
Loop time of 52.9542 on 1 procs for 100000 steps with 256 atoms

Pair  time (%) = 45.1679 (85.2962)
Neigh time (%) = 0 (0)
Comm  time (%) = 3.06089 (5.78027)
Outpt time (%) = 0.00336957 (0.00636318)
Other time (%) = 4.722 (8.91714)

Nlocal:    256 ave 256 max 256 min
Histogram: 1 0 0 0 0 0 0 0 0 0
Nghost:    1431 ave 1431 max 1431 min
Histogram: 1 0 0 0 0 0 0 0 0 0
Neighs:    11008 ave 11008 max 11008 min
Histogram: 1 0 0 0 0 0 0 0 0 0

Total # of neighbors = 11008
Ave neighs/atom = 43
Neighbor list builds = 0
Dangerous builds = 0
                unfix 			1
#----------CALCULATE AVG CELL SIZE---------------------------------------------------------
    ##START  
            ##RUN NPT FOR CELL SIZE
                fix 			1 all npt temp ${T_run} ${T_run} ${Tau_T} iso press 0.0 ${Tau_P}
                fix 			1 all npt temp 0.08267367665 ${T_run} ${Tau_T} iso press 0.0 ${Tau_P}
                fix 			1 all npt temp 0.08267367665 0.08267367665 ${Tau_T} iso press 0.0 ${Tau_P}
                fix 			1 all npt temp 0.08267367665 0.08267367665 1 iso press 0.0 ${Tau_P}
                fix 			1 all npt temp 0.08267367665 0.08267367665 1 iso press 0.0 10

                ##SET myLx EQUAL TO THE X_DIM BOX SIZE

                variable  		myLx equal xhi-xlo

                ##CREATE A FIX WHICH AVERAGES THE X-DIM BOX SIZE OVER TIME

                fix 			myLx all ave/time ${p} ${s} ${d} v_myLx file Lx.profile
                fix 			myLx all ave/time 10000 ${s} ${d} v_myLx file Lx.profile
                fix 			myLx all ave/time 10000 10 ${d} v_myLx file Lx.profile
                fix 			myLx all ave/time 10000 10 100000 v_myLx file Lx.profile

                ##SET ANOTHER VARIABLE myLx2 EQUAL TO THE TIME AVERAGED X-BOX DIM

                variable		myLx2 equal f_myLx

                ##DO FOR Y AND Z DIRECTIONS AS WELL

                variable  		myLy equal yhi-ylo
                fix 			myLy all ave/time ${p} ${s} ${d} v_myLy file Ly.profile
                fix 			myLy all ave/time 10000 ${s} ${d} v_myLy file Ly.profile
                fix 			myLy all ave/time 10000 10 ${d} v_myLy file Ly.profile
                fix 			myLy all ave/time 10000 10 100000 v_myLy file Ly.profile
                variable		myLy2 equal f_myLy
                variable  		myLz equal zhi-zlo
                fix 			myLz all ave/time ${p} ${s} ${d} v_myLz file Lz.profile
                fix 			myLz all ave/time 10000 ${s} ${d} v_myLz file Lz.profile
                fix 			myLz all ave/time 10000 10 ${d} v_myLz file Lz.profile
                fix 			myLz all ave/time 10000 10 100000 v_myLz file Lz.profile
                variable		myLz2 equal f_myLz

            ##REPORT THERMO DATA EVERY thermo NUMBER TIME STEPS

                thermo_style  	custom step temp press vol etotal pe ke #v_myLx2 v_myLy2 v_myLz2 
                thermo		1000

            ##RUN THE ENSEMBLE FOR THIS MANY TIME STEPS

                run			500000
Memory usage per processor = 1.38005 Mbytes
Step Temp Press Volume TotEng PotEng KinEng 
  100000   0.08471609  -0.24939771     241.9713    -7.212912   -7.3394897   0.12657775 
  101000  0.083440914  0.055593801    240.85405   -7.2137673   -7.3384398   0.12467246 
  102000  0.094806402   0.16674284    240.84124   -7.1806706   -7.3223247    0.1416541 
  103000  0.078143993  -0.13429042    241.54613   -7.2207923   -7.3375504   0.11675811 
  104000  0.079669169 -0.084374796    241.47936    -7.213701   -7.3327379   0.11903694 
  105000  0.091438915   0.14706663    240.65715   -7.1976411   -7.3342637    0.1366226 
  106000  0.084632917  0.061609706    241.27542   -7.1926326    -7.319086   0.12645348 
  107000  0.084029259  -0.18438872    241.90447   -7.2058563   -7.3314078   0.12555153 
  108000   0.08444332  0.072568688    240.74352    -7.214885   -7.3410552   0.12617019 
  109000  0.077627897   0.19596509    240.42322   -7.2173514   -7.3333384   0.11598699 
  110000  0.085654188  -0.21899736    242.00305   -7.2044438   -7.3324232    0.1279794 
  111000  0.083095891  -0.11062662    241.44661   -7.2154874   -7.3396444   0.12415695 
  112000  0.076442781   0.34069693    239.80409   -7.2242622   -7.3384785   0.11421626 
  113000  0.077094312  0.017983916    241.07596   -7.2185604   -7.3337501   0.11518974 
  114000  0.080650556  -0.17622318    241.88477   -7.2085993   -7.3291025   0.12050327 
  115000  0.083503843  0.030963565    240.84211   -7.2175861   -7.3423526   0.12476648 
  116000  0.080478764   0.07303902    240.62922   -7.2243862   -7.3446328   0.12024659 
  117000  0.084349395 -0.071517979    241.38409   -7.2089617   -7.3349915   0.12602986 
  118000  0.079257355 -0.014998844     241.2824   -7.2114235   -7.3298451   0.11842163 
  119000  0.082595644  0.045381308    240.71599   -7.2228896   -7.3462991   0.12340951 
  120000  0.087442122 -0.054561716    241.11722   -7.2139399   -7.3445907   0.13065083 
  121000  0.083675918  -0.15864739    241.72202   -7.2088117   -7.3338353   0.12502359 
  122000  0.091559095   0.13416635    240.83102   -7.1909258    -7.327728   0.13680216 
  123000  0.072385949   0.25231927    240.32406   -7.2187398   -7.3268946   0.10815479 
  124000  0.080455884   -0.2763175     242.0227   -7.2198051   -7.3400175    0.1202124 
  125000  0.090375206 -0.058434048    241.55729     -7.19167   -7.3267033   0.13503327 
  126000  0.084196645   0.23477061    240.54898   -7.1976542   -7.3234558   0.12580163 
  127000  0.085294626 -0.076237367    241.30033   -7.2137246   -7.3411667   0.12744217 
  128000  0.078214068 -0.084603695    241.37336   -7.2207724   -7.3376352   0.11686282 
  129000  0.083555105  0.065581776    240.93738    -7.208858   -7.3337011   0.12484308 
  130000  0.086290995   0.03654905    241.07641   -7.2033837   -7.3323146   0.12893088 
  131000   0.08024151  -0.03855759    241.23385   -7.2158403   -7.3357324    0.1198921 
  132000  0.079637934 -0.0038089436    241.06376   -7.2182145   -7.3372047   0.11899027 
  133000  0.084742829  0.016247381     241.0769   -7.2080285   -7.3346462    0.1266177 
  134000   0.08231152 0.0005892115    241.11999   -7.2117561   -7.3347411   0.12298499 
  135000  0.083476085 -0.023300986     240.9909   -7.2202113   -7.3449363   0.12472501 
  136000  0.075728395 0.0069607307    240.99051   -7.2255344   -7.3386833   0.11314887 
  137000   0.07534683  0.018986202    240.89021   -7.2291048   -7.3416835   0.11257876 
  138000  0.077832436   0.03602956    241.14044   -7.2109293   -7.3272219   0.11629261 
  139000  0.080980193  0.020707394    241.15813   -7.2102455   -7.3312413    0.1209958 
  140000  0.079884707  0.017651914    241.07598   -7.2144576   -7.3338166   0.11935899 
  141000  0.073083134  0.039375775    240.71939    -7.236173   -7.3453694   0.10919648 
  142000  0.086128513 -0.070324612    241.46501    -7.202989   -7.3316771   0.12868811 
  143000   0.08011053 -0.014617168    241.24893   -7.2123824   -7.3320788    0.1196964 
  144000  0.083524533   0.12820296    240.41673   -7.2217936    -7.346591    0.1247974 
  145000  0.076994756 -0.037854188     241.3161   -7.2179465   -7.3329875   0.11504099 
  146000  0.081767742  -0.19222285    242.04584   -7.2026066   -7.3247791   0.12217251 
  147000   0.08444749   0.22736818    240.41067   -7.2041934   -7.3303698   0.12617643 
  148000  0.078861432   0.10539735    240.33682    -7.235119   -7.3529491   0.11783007 
  149000  0.085433401  -0.29451332    242.10903   -7.2123659   -7.3400154   0.12764952 
  150000   0.09000497 -0.050674281    241.19154   -7.2073142   -7.3417942   0.13448008 
  151000  0.088297426    0.0884229    240.81644   -7.2037101   -7.3356389   0.13192877 
  152000  0.080491098 -0.027320163    241.18074   -7.2166388   -7.3369039   0.12026502 
  153000  0.082342799 -0.043849968    241.39242   -7.2074607   -7.3304924   0.12303172 
  154000   0.08695737  0.060315534    241.04541   -7.2003012   -7.3302277   0.12992654 
  155000  0.081187862   0.03300404    241.03775   -7.2126579    -7.333964   0.12130608 
  156000  0.081183814 -0.088894294    241.41152   -7.2153771   -7.3366772   0.12130003 
  157000  0.085974034  0.023074593    241.24823   -7.1986007    -7.327058    0.1284573 
  158000  0.087580459   0.14366012    240.55842   -7.2076032   -7.3384608   0.13085752 
  159000  0.082126412   -0.1109783    241.45837   -7.2155884   -7.3382968   0.12270841 
  160000  0.081672513  -0.13258989    241.74517   -7.2078309   -7.3298611   0.12203022 
  161000  0.083864431   0.21964334    240.54551   -7.1989788   -7.3242841   0.12530525 
  162000  0.081267514  0.069103599    240.99422   -7.2079158   -7.3293409   0.12142509 
  163000  0.081628031  -0.23540901    241.81243   -7.2213419   -7.3433057   0.12196376 
  164000  0.083484406  0.072213761    240.84867   -7.2112139   -7.3359514   0.12473744 
  165000  0.085944649   0.17721275    240.47732   -7.2075954   -7.3360088   0.12841339 
  166000  0.080278639  -0.13036753    241.55488   -7.2167484    -7.336696   0.11994758 
  167000  0.080425269 -0.086287258    241.38353   -7.2168577   -7.3370243   0.12016666 
  168000  0.084160354    0.1095124    240.77742   -7.2074969   -7.3332443    0.1257474 
  169000  0.083510874  0.010894927    241.16927    -7.206444    -7.331221   0.12477699 
  170000  0.078881403 -0.071025386    241.39723   -7.2155916   -7.3334515   0.11785991 
  171000  0.081736176   0.01347068    240.90113   -7.2207771   -7.3429025   0.12212534 
  172000  0.085386877  0.070349037    241.09837   -7.1979384   -7.3255184      0.12758 
  173000  0.087415393 -0.068288268    241.48465   -7.2008873   -7.3314982   0.13061089 
  174000  0.082670699  -0.11115543    241.35143   -7.2202697   -7.3437913   0.12352165 
  175000  0.079125603   0.22892542    240.27649   -7.2170321   -7.3352569   0.11822478 
  176000  0.088946282  0.030799456    241.30659   -7.1903415   -7.3232397   0.13289825 
  177000  0.075185552  -0.24942492    242.21545   -7.2141977   -7.3265355   0.11233779 
  178000  0.086149731  0.063756396    240.65908   -7.2182292   -7.3469491   0.12871981 
  179000  0.085539242   0.18826085    240.40303   -7.2089699   -7.3367776   0.12780766 
  180000  0.084043829  -0.11834949    241.81384   -7.1991853   -7.3247586    0.1255733 
  181000  0.078491817 -0.046006926    241.18543   -7.2220624   -7.3393402   0.11727781 
  182000  0.084052764  0.063694765    240.56654   -7.2246262   -7.3502129   0.12558665 
  183000  0.079127071   0.03392613    241.09781    -7.211904   -7.3301309   0.11822697 
  184000  0.085100869 -0.052718319    241.37009    -7.206345   -7.3334976   0.12715267 
  185000  0.080377655  0.030401623    241.08517   -7.2112425    -7.331338   0.12009552 
  186000   0.07729361  0.039565882    240.77919    -7.227796   -7.3432835   0.11548752 
  187000  0.074226916 0.0068258398    241.06144   -7.2253796   -7.3362851   0.11090545 
  188000  0.083659101 -0.0096632893    241.21388   -7.2083323   -7.3333308   0.12499846 
  189000  0.093669596  0.013777335    240.96769   -7.2015861   -7.3415416   0.13995555 
  190000  0.083484705   0.02889344    241.33958    -7.196302   -7.3210399   0.12473789 
  191000  0.083213955  -0.13453607    241.62268   -7.2112085   -7.3355418   0.12433335 
  192000   0.08821704  0.052931056    240.67318   -7.2153642   -7.3471729   0.13180866 
  193000  0.083915402   0.14997184    240.44017   -7.2156486     -7.34103   0.12538141 
  194000  0.092036365  -0.22380208    242.16371   -7.1909283   -7.3284436   0.13751527 
  195000  0.079580266 -0.019569021    241.55855   -7.1992488   -7.3181529   0.11890411 
  196000  0.085446598   0.23061081    240.33964    -7.204962   -7.3326312   0.12766923 
  197000  0.081172781 -0.017685351    241.23586   -7.2107329   -7.3320165   0.12128355 
  198000  0.069496953    -0.170732    241.63072   -7.2344693   -7.3383076   0.10383822 
  199000  0.084348858  0.086955227    240.74311   -7.2118929    -7.337922   0.12602906 
  200000  0.084170171  0.085801223    240.82389   -7.2083937   -7.3341558   0.12576207 
  201000  0.085474205  -0.10128001    241.39775   -7.2122524   -7.3399629   0.12771048 
  202000  0.075192207 -0.00056426161    240.99772   -7.2268562   -7.3392039   0.11234773 
  203000  0.079595119  0.073937447    240.69063   -7.2228161   -7.3417424    0.1189263 
  204000  0.079651212  0.018573867    240.98347    -7.218965   -7.3379751   0.11901011 
  205000  0.084708069  -0.13035265    241.60009   -7.2095455   -7.3361113   0.12656577 
  206000  0.090025335  0.031347048     241.1352   -7.1970858   -7.3315963   0.13451051 
  207000  0.084684734   0.26642943    240.41752   -7.1966293   -7.3231602    0.1265309 
  208000  0.082634014  -0.27638709    242.09552   -7.2137812   -7.3372481   0.12346684 
  209000  0.078181823  -0.20071998     241.7951   -7.2210658   -7.3378804   0.11681464 
  210000  0.075562156   0.35497537    239.74467     -7.22443   -7.3373305   0.11290049 
  211000  0.082184788  0.015072378    240.87039   -7.2209878   -7.3437834   0.12279563 
  212000  0.079155332  -0.20828883    242.06691   -7.2087933   -7.3270625    0.1182692 
  213000  0.082981736  0.085014815    240.86365   -7.2097647   -7.3337511   0.12398638 
  214000  0.082180477   0.17673735     240.3701   -7.2171362   -7.3399254   0.12278919 
  215000  0.077998533  -0.13681166    241.35551     -7.23034   -7.3468808   0.11654078 
  216000   0.07860893 -0.067859775    241.36165   -7.2187716   -7.3362244    0.1174528 
  217000  0.084139385    0.1271743    240.65052   -7.2106086   -7.3363247   0.12571607 
  218000  0.091578767 -0.086347456    241.34774   -7.2042237   -7.3410552   0.13683156 
  219000  0.090393862 -0.072253785    241.54326   -7.1953819    -7.330443   0.13506114 
  220000  0.086166652  0.045311152    241.05984   -7.2034372   -7.3321823   0.12874509 
  221000   0.08465669 -0.011671757     241.0529   -7.2143386   -7.3408276     0.126489 
  222000  0.078457908 -0.011140995    241.19883   -7.2158886   -7.3331157   0.11722715 
  223000  0.079179917  0.038084426    241.09482   -7.2114812   -7.3297871   0.11830593 
  224000   0.08566595  0.017613963    241.22693   -7.2003476   -7.3283446   0.12799698 
  225000  0.086079728 -0.0068942978    241.24647   -7.2032497    -7.331865   0.12861522 
  226000  0.079266837 -0.051019745    241.53217   -7.2064319   -7.3248677    0.1184358 
  227000  0.076932665   0.11607077    240.83704   -7.2136373   -7.3285855   0.11494822 
  228000  0.079128006  0.097394325    240.53435   -7.2270015   -7.3452298   0.11822837 
  229000  0.075589955  -0.14685643     241.5852   -7.2246797   -7.3376218   0.11294202 
  230000  0.083069048 -0.057302626    241.30536    -7.212438   -7.3365548   0.12411684 
  231000  0.082730482    0.2947697    240.23395   -7.2030414   -7.3266523   0.12361097 
  232000  0.083424808 -0.028445849    241.50931   -7.1982725   -7.3229209   0.12464839 
  233000  0.087702721  -0.29624317    242.44695   -7.1956238    -7.326664    0.1310402 
  234000  0.081591724   0.15544633    240.56338   -7.2126102   -7.3345197   0.12190951 
  235000  0.075420976   0.15323168    240.68621   -7.2155072   -7.3281968   0.11268954 
  236000  0.082886579  -0.09504528    241.37156   -7.2152434   -7.3390876   0.12384421 
  237000  0.087902511 -0.006567597    241.41772   -7.1930822   -7.3244209   0.13133871 
  238000  0.087967091  0.073997217    241.00822   -7.1976139   -7.3290492    0.1314352 
  239000  0.084342172 -0.052802617    241.44459   -7.2037673   -7.3297864   0.12601907 
  240000  0.080907703 -0.016054342    241.27483   -7.2100141   -7.3309016   0.12088749 
  241000  0.078423143  0.099886687    240.55187   -7.2264214   -7.3435966    0.1171752 
  242000  0.081638512 -0.034778326    241.03714    -7.222856   -7.3448354   0.12197942 
  243000  0.087199838  -0.18475431    241.68737   -7.2114191   -7.3417079   0.13028882 
  244000  0.084568643   0.11532841    240.71431   -7.2088291   -7.3351865   0.12635745 
  245000  0.080688384   0.14594449    240.47641   -7.2198003     -7.34036   0.12055979 
  246000  0.079925339  -0.23212919    241.81235   -7.2223157   -7.3417354    0.1194197 
  247000  0.077741806 -0.032184461    241.18942   -7.2197397   -7.3358969   0.11615719 
  248000  0.083212786   0.20289487    240.31011   -7.2130896   -7.3374212    0.1243316 
  249000  0.086407179 -0.073727913    241.42317   -7.2053606   -7.3344651   0.12910448 
  250000  0.088056491  -0.10895005      241.865   -7.1898649   -7.3214337   0.13156878 
  251000  0.082052174  0.086232343    240.78355   -7.2145112   -7.3371087   0.12259749 
  252000  0.081349738 0.0083715008    240.90914   -7.2216188   -7.3431667   0.12154795 
  253000  0.084151872 -0.087904634    241.12884   -7.2239113    -7.349646   0.12573473 
  254000  0.082291163 0.0002843961    241.03647    -7.216092   -7.3390466   0.12295457 
  255000    0.0797135  0.086739126    241.02088   -7.2063377   -7.3254409   0.11910318 
  256000  0.085578439 -0.032399961     241.1996   -7.2098323   -7.3376985   0.12786622 
  257000  0.079476734 -0.018274781    241.05641   -7.2221252   -7.3408746   0.11874942 
  258000  0.078557179  0.035670154    240.87592    -7.221892   -7.3392675   0.11737547 
  259000  0.078209068  0.039954365    241.08726   -7.2126247   -7.3294801   0.11685535 
  260000  0.085529722 -0.053615351    241.16987   -7.2141987   -7.3419921   0.12779343 
  261000  0.081455272 -0.036889036    240.97672   -7.2257052   -7.3474109   0.12170563 
  262000  0.083230645  0.042074814    240.78054   -7.2200289   -7.3443872   0.12435829 
  263000  0.075060809  0.067183761    241.16348   -7.2076587   -7.3198101    0.1121514 
  264000  0.081141265  -0.13872846    241.63415   -7.2126473   -7.3338837   0.12123646 
  265000  0.078662664  0.064517027    240.71685   -7.2248522   -7.3423853   0.11753308 
  266000  0.082991429   0.16696465    240.34665   -7.2191425   -7.3431434   0.12400087 
  267000  0.090076304  -0.24006212    241.94242   -7.2046911   -7.3392777   0.13458667 
  268000  0.077272346   -0.1131587    241.58605   -7.2157706   -7.3312263   0.11545575 
  269000  0.086780654   0.22479505    240.04772   -7.2185178   -7.3481803    0.1296625 
  270000  0.085200025 -0.0040040491      241.131      -7.2089   -7.3362009   0.12730082 
  271000  0.091185359  -0.20208098    241.90912    -7.198876   -7.3351197   0.13624375 
  272000  0.086712515  0.058729382    241.25438     -7.19085   -7.3204107   0.12956069 
  273000  0.079880136  0.069694717    240.75967   -7.2195019    -7.338854   0.11935216 
  274000  0.077034458 -0.036445856    241.24608   -7.2195813   -7.3346816   0.11510031 
  275000  0.094063175 -0.038649655    241.52332   -7.1853979   -7.3259415   0.14054361 
  276000  0.082933029  0.038648517    240.94407   -7.2142983   -7.3382119   0.12391361 
  277000  0.077243042 -0.0075609194    241.18562   -7.2179778   -7.3333897   0.11541197 
  278000  0.079366416 -0.033074602    241.21191   -7.2175996   -7.3361842   0.11858459 
  279000  0.086810932  0.085936598     240.8108   -7.2053476   -7.3350554   0.12970774 
  280000  0.082680236 -0.0080563705     241.1213   -7.2133596   -7.3368955    0.1235359 
  281000  0.078094267  -0.14907528    241.53657   -7.2228879   -7.3395717   0.11668382 
  282000  0.083549211  0.061363786    240.77244   -7.2153036   -7.3401379   0.12483427 
  283000  0.081966663    0.1754097    240.59997   -7.2071237   -7.3295934   0.12246972 
  284000  0.082581452  -0.19911844    241.98913   -7.2054949   -7.3288832    0.1233883 
  285000  0.083828177  -0.14210474    241.67204    -7.208733   -7.3339841   0.12525108 
  286000   0.07953252    0.3594815    239.83596   -7.2160875   -7.3349202   0.11883277 
  287000  0.084287264 -0.046507411    241.20573   -7.2130842   -7.3390213   0.12593703 
  288000  0.087622275  -0.17092445    241.92159   -7.1975451   -7.3284651      0.13092 
  289000  0.092229177 -0.0084040251    241.07639   -7.2020608   -7.3398642   0.13780336 
  290000  0.088427071  0.047635852    240.89811   -7.2058427   -7.3379652   0.13212248 
  291000  0.081009693 -0.056209159     241.2743    -7.216737   -7.3377769   0.12103987 
  292000  0.077113051 -0.069142139    241.13075   -7.2300039   -7.3452216   0.11521774 
  293000  0.080881828  0.085005445     240.6623   -7.2208085   -7.3416573   0.12084882 
  294000  0.082412617  0.048694231    240.99104   -7.2096933   -7.3328294   0.12313604 
  295000  0.086389033  -0.23541101    242.00827   -7.2052479   -7.3343253   0.12907736 
  296000  0.082517116  0.047706858    240.97585   -7.2102609   -7.3335531   0.12329218 
  297000  0.084528997   0.25665537    240.02238     -7.21644   -7.3427382   0.12629821 
  298000  0.080722733  -0.19029549    241.75877   -7.2164294   -7.3370406   0.12061111 
  299000  0.079291018    -0.121252      241.664    -7.212359   -7.3308309   0.11847193 
  300000  0.088007865   0.20089504    240.52167   -7.1989672   -7.3304633   0.13149613 
  301000  0.091027326  0.019068675    241.18041    -7.195077   -7.3310846   0.13600763 
  302000  0.085243107   -0.1779315    241.78464   -7.2064907   -7.3338559   0.12736519 
  303000  0.084523405  0.025700644    240.88721   -7.2155383   -7.3418282   0.12628985 
  304000  0.086484821  0.056625576    240.79091   -7.2124792   -7.3416997   0.12922048 
  305000  0.089931905 -0.084154493    241.40967   -7.2028683   -7.3372392   0.13437091 
  306000  0.080442856 -0.0017414832    241.22071   -7.2102377   -7.3304307   0.12019294 
  307000  0.077941754  0.031990969    240.88551   -7.2241626   -7.3406186   0.11645594 
  308000  0.083491669  0.025447235    241.07814   -7.2093651   -7.3341134   0.12474829 
  309000  0.084435876  -0.05107352    241.35882   -7.2068707   -7.3330298   0.12615907 
  310000   0.08481961 0.0093583563    241.27479   -7.2003048   -7.3270372   0.12673242 
  311000  0.081390356  0.067304325    240.88294    -7.213314   -7.3349226   0.12160864 
  312000  0.082478619  -0.06036286    241.33886   -7.2128134    -7.336048   0.12323465 
  313000  0.090738264 -0.075319999    241.44533    -7.198909   -7.3344847   0.13557573 
  314000  0.084757471   0.13771518    240.84161   -7.1986764    -7.325316   0.12663958 
  315000  0.081134185  0.028798265    241.23214   -7.2034856   -7.3247115   0.12122588 
  316000  0.086203617  -0.22453005    241.66389   -7.2190828   -7.3478832   0.12880033 
  317000  0.086733637  0.066535546    240.88088   -7.2060313   -7.3356236   0.12959225 
  318000  0.087730446   0.21396862    240.29623   -7.2064868   -7.3375684   0.13108162 
  319000    0.0767883  -0.17191716    241.98578   -7.2093476   -7.3240802   0.11473252 
  320000  0.072934769  -0.14964769    241.46752   -7.2337123   -7.3426872    0.1089748 
  321000  0.088213257   0.20465346    240.36934   -7.2044852   -7.3362882   0.13180301 
  322000  0.094514018 -0.061272061    241.17402   -7.2033662   -7.3445834   0.14121723 
  323000  0.077455011 -0.090551403    241.25177   -7.2284315   -7.3441602   0.11572868 
  324000  0.076139006  0.047580286     240.7909   -7.2280101   -7.3417725   0.11376238 
  325000  0.085839296  0.044062226    240.99693   -7.2058687   -7.3341247   0.12825598 
  326000  0.081781878  -0.04648933    241.26118   -7.2145899   -7.3367835   0.12219363 
  327000  0.081781251 -0.080333291    241.33582   -7.2172562   -7.3394489   0.12219269 
  328000  0.079833365   0.12023019    240.66076   -7.2164952   -7.3357775   0.11928227 
  329000  0.083574348   0.02011163    241.05777   -7.2098856   -7.3347574   0.12487183 
  330000  0.087475043  -0.20249836    242.09719   -7.1964394   -7.3271394   0.13070002 
  331000  0.087469771  0.060678324    240.93247   -7.2040006   -7.3346927   0.13069214 
  332000  0.082069847    0.1801488    240.31788    -7.219523   -7.3421469   0.12262389 
  333000  0.080928641   -0.1669158    241.55407   -7.2218558   -7.3427746   0.12091877 
  334000  0.080141176  -0.12722352    241.54847   -7.2168169   -7.3365591   0.11974219 
  335000  0.087973219   0.17845149    240.38437   -7.2086349   -7.3400793   0.13144436 
  336000  0.084778507  0.010975554    240.85391   -7.2194216   -7.3460926   0.12667101 
  337000  0.076244064  -0.17561782    241.57687   -7.2286434   -7.3425628   0.11391935 
  338000  0.081315201  0.031582621    240.92675   -7.2174498   -7.3389461   0.12149635 
  339000   0.08073374   0.10482915    240.92949   -7.2057252   -7.3263528   0.12062756 
  340000  0.087302689 -0.041299273    241.34973   -7.2023342   -7.3327767   0.13044249 
  341000  0.088745237 -0.045036798    241.41313   -7.1981058   -7.3307037   0.13259786 
  342000  0.082859244  0.032772079    240.95134    -7.213268   -7.3370714   0.12380336 
  343000  0.077388346   0.03735169    241.02316   -7.2170511   -7.3326802   0.11562907 
  344000  0.078877882 -0.018265318    241.31852   -7.2110172   -7.3288718   0.11785465 
  345000  0.088497655 -0.0087636935    241.11057   -7.2065178   -7.3387457   0.13222794 
  346000  0.077190505   0.18634399    240.56008   -7.2141064   -7.3294399   0.11533347 
  347000  0.081884705  -0.14364964    241.64951    -7.213222   -7.3355692   0.12234726 
  348000  0.086381475  -0.15315508    241.69061   -7.2062909    -7.335357   0.12906607 
  349000  0.087702403   0.25252173    240.34644   -7.1990315   -7.3300713   0.13103972 
  350000  0.081313678  0.042418199     241.0028   -7.2121036   -7.3335977   0.12149407 
  351000  0.079083039  -0.25853936    241.98795   -7.2207385   -7.3388997   0.11816118 
  352000  0.077359589   0.11044586    240.73139   -7.2182939     -7.33388    0.1155861 
  353000  0.089509198  0.082264735    240.77278   -7.2052831   -7.3390225   0.13373933 
  354000  0.082935808 -0.053700521    241.46898   -7.2040438   -7.3279616   0.12391776 
  355000  0.078998692 -0.073687891    241.05838   -7.2315726   -7.3496078   0.11803516 
  356000  0.078231418  0.063897554    240.73973   -7.2251197   -7.3420084   0.11688874 
  357000  0.078297347  0.054246516    241.01989   -7.2135408    -7.330528   0.11698725 
  358000  0.085264547 -0.068984573    241.49265   -7.2022709   -7.3296681   0.12739722 
  359000  0.087705178 -0.011647375    240.97397   -7.2138369   -7.3448808   0.13104387 
  360000  0.079688636   0.21827916    240.14901   -7.2237573   -7.3428233   0.11906603 
  361000  0.077132107  -0.18643753    241.89601    -7.215715   -7.3309612   0.11524622 
  362000  0.087930327  -0.23662825    241.91829   -7.2081626   -7.3395429   0.13138027 
  363000  0.079495512   0.28918355    240.13077   -7.2134893   -7.3322667   0.11877747 
  364000  0.078272872  0.041993014    240.77964   -7.2266197   -7.3435703   0.11695068 
  365000  0.079449223  -0.15195872    241.53681   -7.2217028   -7.3404112   0.11870831 
  366000  0.082463882  0.004802156     240.9883   -7.2170458   -7.3402584   0.12321264 
  367000  0.086899531  0.093538435    240.72301   -7.2081593   -7.3379994   0.12984012 
  368000   0.08522668  -0.10016942    241.42765    -7.211285   -7.3386257   0.12734064 
  369000  0.085904123  -0.11455683    241.34883   -7.2162545   -7.3446073   0.12835284 
  370000  0.077777379   0.14218218    240.52811   -7.2211311   -7.3373414   0.11621034 
  371000  0.083352497   0.07300459    240.96619   -7.2066713   -7.3312117   0.12454035 
  372000  0.084588587  -0.32631079    242.36748   -7.2080444   -7.3344316   0.12638724 
  373000  0.080219155  0.093240345    240.76359   -7.2161128   -7.3359715    0.1198587 
  374000  0.083338007   0.29933989    239.95474   -7.2145545   -7.3390732    0.1245187 
  375000  0.084481746  -0.18343858    241.91405   -7.2044785   -7.3307061   0.12622761 
  376000  0.086309216 -0.088452911    241.68145   -7.1966008   -7.3255589   0.12895811 
  377000  0.086453788   0.11850482    240.65278   -7.2078749    -7.337049   0.12917412 
  378000   0.08264164  0.012202848    240.96655   -7.2168305   -7.3403087   0.12347823 
  379000   0.08372342  -0.13395011    241.61655   -7.2105351   -7.3356296   0.12509456 
  380000  0.087182148  0.057742775    241.18622   -7.1924581   -7.3227205   0.13026239 
  381000  0.081849055   0.14571362    240.50605   -7.2167116   -7.3390056     0.122294 
  382000  0.083816224  -0.17338867    241.52317   -7.2210442   -7.3462774   0.12523323 
  383000  0.086837057 -0.092340531    241.56725   -7.2016265   -7.3313733   0.12974678 
  384000  0.081075084   0.25181461    240.52916   -7.1986084   -7.3197459   0.12113758 
  385000  0.078077004   0.02385257    241.02022   -7.2183261   -7.3349841   0.11665802 
  386000  0.080528384  -0.19925636    241.81717   -7.2158934   -7.3362141   0.12032073 
  387000  0.085053425  0.085969536    240.82127   -7.2080423   -7.3351241   0.12708178 
  388000  0.077345622   0.18284955    240.26559   -7.2276809   -7.3432462   0.11556524 
  389000  0.082095827  -0.21110428    241.52889   -7.2288672   -7.3515299   0.12266271 
  390000  0.085939759  -0.13580085    241.53031   -7.2107611   -7.3391672   0.12840609 
  391000  0.087201518   0.18242589    240.55795    -7.202339   -7.3326303   0.13029133 
  392000  0.078176928   0.04029063    240.99306   -7.2171709   -7.3339782   0.11680732 
  393000  0.077004801  -0.15757357     241.5884   -7.2245801   -7.3396361     0.115056 
  394000   0.08374896  0.052245269    240.88081   -7.2132609   -7.3383936   0.12513272 
  395000  0.086142661   0.12090695    240.64621    -7.209608   -7.3383173   0.12870925 
  396000  0.078056853  -0.10998053    241.44753   -7.2210057   -7.3376336   0.11662791 
  397000  0.082384951  -0.15550746    241.41097   -7.2245955   -7.3476902    0.1230947 
  398000  0.081767469   0.25596604    240.13198   -7.2164311   -7.3386032    0.1221721 
  399000  0.090697186  0.026505835    240.76865   -7.2121665   -7.3476808   0.13551435 
  400000  0.081992526  -0.35405586    242.65948   -7.2027035   -7.3252118   0.12250836 
  401000  0.084436587  0.060186741    240.96171   -7.2064472   -7.3326073   0.12616013 
  402000  0.084932416   0.12595814    240.50401   -7.2159428   -7.3428438   0.12690097 
  403000  0.082930753  -0.11101339    241.45396   -7.2144948    -7.338405   0.12391021 
  404000  0.082128259 -0.046252064    241.48269   -7.2045228    -7.327234   0.12271117 
  405000  0.087927504    0.1221665    240.93158   -7.1935792   -7.3249553   0.13137606 
  406000  0.084061716 0.00034345572    241.28104   -7.2022712   -7.3278712   0.12560002 
  407000  0.082416183  -0.15720616    241.77858   -7.2090853   -7.3322267   0.12314137 
  408000  0.079375738   0.14855102    240.47433   -7.2212101   -7.3398086   0.11859852 
  409000  0.083996157   0.14888043     240.1648   -7.2288512   -7.3543533   0.12550207 
  410000  0.081262534  -0.42234827    242.68482   -7.2148943    -7.336312   0.12141765 
  411000  0.088925601   -0.1755925    241.65588   -7.2082924   -7.3411598   0.13286735 
  412000  0.081713655   0.30379491    240.17682   -7.2049611   -7.3270528   0.12209169 
  413000   0.08489212 -0.053880294    241.32057   -7.2077037   -7.3345444   0.12684076 
  414000  0.081608265   -0.1042922     241.4892   -7.2146432   -7.3365774   0.12193422 
  415000  0.081342585  0.063246162    240.81314    -7.216858   -7.3383953   0.12153726 
  416000  0.078230472  0.082452103    240.90085   -7.2135635   -7.3304508   0.11688733 
  417000  0.085400177  -0.13197902    241.66939   -7.2044397   -7.3320395   0.12759987 
  418000  0.090080274 -0.017444763    241.38966   -7.1923598   -7.3269524    0.1345926 
  419000  0.087290254   0.23053495    240.26731   -7.2052818   -7.3357058   0.13042392 
  420000  0.080946053  -0.13288808    241.62921   -7.2136747   -7.3346194   0.12094479 
  421000  0.073266247  -0.21713799    241.98806   -7.2208781   -7.3303482   0.10947008 
  422000  0.079741669   0.21521394    240.08857   -7.2271676   -7.3463129   0.11914527 
  423000  0.082998639  0.091178321    240.70617   -7.2151237   -7.3391353   0.12401164 
  424000  0.082754704  -0.15751306    241.76413   -7.2088588   -7.3325059   0.12364717 
  425000  0.076339782  0.051268314    241.16923   -7.2086276     -7.32269   0.11406237 
  426000  0.077693593   0.15903661    240.40928   -7.2247335   -7.3408187   0.11608515 
  427000  0.078401051 -0.075362894    241.19841   -7.2275789   -7.3447211    0.1171422 
  428000   0.07977409 -0.097048232    241.35168   -7.2216631   -7.3408568   0.11919371 
  429000  0.085603833   0.12719896      240.512   -7.2152554   -7.3431596   0.12790417 
  430000   0.08348811  0.026935408    241.01737   -7.2114834   -7.3362264   0.12474298 
  431000  0.079796372  -0.24660922    242.13949   -7.2108596   -7.3300866     0.119227 
  432000  0.080317285   0.11821335     240.6372   -7.2178589   -7.3378642   0.12000532 
  433000  0.073362016   0.36901874    239.76807    -7.225589   -7.3352022   0.10961317 
  434000  0.075420375  -0.20116501    241.68473   -7.2293268   -7.3420154   0.11268865 
  435000  0.082348986 -0.048316584    241.44838   -7.2074283   -7.3304693   0.12304097 
  436000  0.090439149  0.057686182    240.83404   -7.2043347   -7.3394635   0.13512881 
  437000  0.079456455    0.0223636    241.03452   -7.2156853   -7.3344044   0.11871912 
  438000  0.084151832 -0.097390823    241.68481   -7.2010033    -7.326738   0.12573467 
  439000   0.09207224  0.015129938    241.18013   -7.1946289   -7.3321978   0.13756887 
  440000  0.087499384   0.10830463    240.79631    -7.202697   -7.3334334   0.13073638 
  441000  0.083228861  -0.11510113    241.47987   -7.2136152   -7.3379708   0.12435562 
  442000  0.074026591  -0.13594842    241.67247   -7.2198373   -7.3304435   0.11060614 
  443000  0.085267936   0.25577806    240.07128   -7.2138749   -7.3412772   0.12740229 
  444000   0.08878032  0.053107018    240.93032   -7.2034515   -7.3361017   0.13265028 
  445000   0.08453146  -0.29759863    242.27514   -7.2073497   -7.3336516   0.12630189 
  446000  0.076237083  0.050296934     240.7414   -7.2296618   -7.3435707   0.11390892 
  447000  0.081588031   0.19527045    240.34891   -7.2167318   -7.3386358   0.12190399 
  448000  0.087066842  -0.13137779     241.5197   -7.2094679    -7.339558   0.13009011 
  449000  0.086887761    -0.189313    241.66418   -7.2137084   -7.3435309   0.12982253 
  450000  0.074333948   0.19362572     240.3437   -7.2256489   -7.3367143   0.11106537 
  451000  0.076787451   0.10866808    240.81281   -7.2157587   -7.3304899   0.11473125 
  452000  0.078080343  -0.12995279    241.91345   -7.2041946   -7.3208576   0.11666301 
  453000  0.087739296  0.064888321    241.09239   -7.1958337   -7.3269285   0.13109485 
  454000  0.094189458   0.11857474    240.61938   -7.1996535   -7.3403858    0.1407323 
  455000  0.078425937   -0.1375354    241.70332   -7.2146528   -7.3318322   0.11717938 
  456000  0.080448818 -0.077257626    241.49614   -7.2121352   -7.3323371   0.12020185 
  457000  0.079882719   0.25744771    240.38117    -7.206958    -7.326314   0.11935602 
  458000  0.083731236 -0.0072550909     241.1439   -7.2112811   -7.3363873   0.12510624 
  459000  0.076065858  -0.19055799    241.77091   -7.2228359    -7.336489   0.11365309 
  460000  0.084414634  0.082749409    240.82788    -7.209811   -7.3359383   0.12612733 
  461000  0.083120595   0.17383976    240.64958   -7.2035587   -7.3277526   0.12419386 
  462000  0.093964164  -0.22397823    242.07722   -7.1902981   -7.3306938   0.14039567 
  463000  0.086203076 -0.095886359    241.44223   -7.2079167   -7.3367162   0.12879952 
  464000   0.08403246   0.17722284    240.40439   -7.2136457    -7.339202   0.12555631 
  465000  0.081480604 -0.019478688    241.17085   -7.2146244   -7.3363679   0.12174348 
  466000   0.08289859  -0.14034298    241.69754   -7.2081014   -7.3319636   0.12386215 
  467000  0.082013184  0.069516209    240.69698   -7.2207872   -7.3433264   0.12253923 
  468000  0.080944533  0.034995251    240.68356   -7.2279855    -7.348928   0.12094252 
  469000  0.078048065 -0.055684295    241.22412   -7.2223062    -7.338921   0.11661478 
  470000  0.083871463 -0.031287801    241.22599   -7.2118175   -7.3371332   0.12531576 
  471000  0.089056721  0.050865584    241.07067   -7.1967799   -7.3298432   0.13306326 
  472000  0.087286644 0.0061717301    241.22662   -7.2005024   -7.3309209   0.13041852 
  473000  0.078813346  -0.10324922     241.4404   -7.2199064   -7.3376647   0.11775822 
  474000  0.086169136  0.054074353    240.85961   -7.2098524   -7.3386012   0.12874881 
  475000  0.086825369   0.20655271    240.60244   -7.1954257    -7.325155   0.12972931 
  476000   0.08500977  -0.22659723    242.01167   -7.2063443   -7.3333608   0.12701655 
  477000  0.080197959  -0.13599284    241.56786   -7.2175099   -7.3373369   0.11982703 
  478000  0.081349799   0.24043241    240.05375   -7.2227207   -7.3442687   0.12154804 
  479000  0.085089938 -0.044103593    241.06333   -7.2182677    -7.345404   0.12713633 
  480000  0.086109407  -0.15507876    241.74282    -7.204551   -7.3332106   0.12865956 
  481000  0.081933036   0.03976566    240.96773   -7.2137056   -7.3361251   0.12241948 
  482000  0.078342276  0.057080511    240.79498   -7.2224913   -7.3395456   0.11705438 
  483000  0.079599855 -0.019338872    241.23349   -7.2142156    -7.333149   0.11893338 
  484000  0.083174563  0.012515938    241.35123   -7.1982911   -7.3225655   0.12427449 
  485000  0.083839024   0.05677717    241.01971   -7.2065381   -7.3318054   0.12526729 
  486000  0.082697384 0.0050312771    240.97304   -7.2171334   -7.3406949   0.12356152 
  487000  0.083247925 -0.082597572    241.45302   -7.2095419    -7.333926   0.12438411 
  488000  0.088270688 0.0061206575    241.28784   -7.1963094   -7.3281982   0.13188882 
  489000  0.082016141   0.12996857    240.64565   -7.2127142   -7.3352578   0.12254365 
  490000  0.079489345 -0.054469423    241.31985    -7.216982   -7.3357503   0.11876826 
  491000  0.076673976  -0.14120858    241.54473   -7.2234669   -7.3380286    0.1145617 
  492000   0.08502143   0.17440404    240.45273   -7.2113862   -7.3384202   0.12703397 
  493000  0.086847073   0.10637606    240.86731   -7.2007342    -7.330496   0.12976174 
  494000  0.090355985  -0.29977478    242.38612   -7.1951122   -7.3301167   0.13500455 
  495000  0.083132602  0.050532347    241.03134   -7.2072301   -7.3314419    0.1242118 
  496000  0.085186857   0.18774039     240.3122   -7.2144193   -7.3417004   0.12728114 
  497000  0.088851196  -0.18653834    241.62264   -7.2123554   -7.3451116   0.13275618 
  498000  0.082689638  -0.11070012    241.80171   -7.1992658   -7.3228157   0.12354995 
  499000  0.083829326   0.18308967    240.59938   -7.2035444   -7.3287972    0.1252528 
  500000  0.084500937 0.0010976213    240.86213   -7.2205309   -7.3467871   0.12625628 
  501000  0.085496176   -0.2201801    241.81353   -7.2125844   -7.3403278   0.12774331 
  502000   0.08747522  0.023506628    241.04774    -7.204397   -7.3350973   0.13070028 
  503000  0.088251192   0.21922109    240.72489   -7.1860096   -7.3178693   0.13185969 
  504000    0.0754299  -0.16171412    241.72301    -7.220261   -7.3329638   0.11270288 
  505000  0.075691319  -0.18385587    241.73827     -7.22375   -7.3368435   0.11309347 
  506000  0.084878285   0.46662995    239.14089   -7.2222201   -7.3490402   0.12682009 
  507000  0.086465825  -0.03337157    241.16725   -7.2102378   -7.3394299    0.1291921 
  508000  0.083624252  -0.21623472    241.88539   -7.2121339   -7.3370803   0.12494639 
  509000  0.081110301  0.048717764    240.70881    -7.224144   -7.3453341    0.1211902 
  510000  0.079008672   0.13456163    240.59683   -7.2179482   -7.3359983   0.11805007 
  511000  0.083436537 -0.094065308    241.61367   -7.2033611    -7.328027   0.12466592 
  512000  0.080883647 -0.046486436    241.31163   -7.2133438   -7.3341954   0.12085154 
  513000  0.081698175   0.14291676    240.36059   -7.2241672   -7.3462358   0.12206856 
  514000  0.077363783 -0.011537203    241.01533   -7.2252399   -7.3408322   0.11559237 
  515000  0.079164231  -0.23535678    242.24273   -7.2054793   -7.3237618   0.11828249 
  516000  0.080334267   0.19614227    240.46235   -7.2127188   -7.3327495   0.12003069 
  517000  0.075865816   0.30829835    239.75374   -7.2323643   -7.3457185    0.1133542 
  518000  0.079212077  -0.21677506    242.01152   -7.2121291    -7.330483   0.11835398 
  519000  0.093492544  -0.17655477    241.57575   -7.2065887   -7.3462797   0.13969101 
  520000  0.081004797   0.17898545    240.46915   -7.2134783   -7.3345109   0.12103256 
  521000   0.07816189  0.010361918    240.94341   -7.2242367   -7.3410215   0.11678485 
  522000  0.079588981   -0.1880917    241.73867   -7.2190179   -7.3379351   0.11891713 
  523000  0.086768932   0.05420768    240.73543   -7.2151939   -7.3448389   0.12964499 
  524000   0.09210705    0.1077165    240.65588   -7.2030014   -7.3406223   0.13762088 
  525000  0.079784644  -0.13487329    241.88639   -7.2040856    -7.323295   0.11920948 
  526000  0.085776834   -0.1016304    241.62323   -7.2017131   -7.3298757   0.12816265 
  527000  0.085371461   0.25923992    240.08833   -7.2126482   -7.3402052   0.12755697 
  528000  0.076546211  0.011473506    241.18264   -7.2162299   -7.3306007    0.1143708 
  529000  0.082077977  -0.28162428    242.15879   -7.2134521   -7.3360881   0.12263604 
  530000  0.095090526   0.11169236    240.93671   -7.1856326   -7.3277112   0.14207862 
  531000  0.084144888   0.10416001    240.54531   -7.2192278   -7.3449521   0.12572429 
  532000  0.077822839  -0.11976144    241.56886   -7.2180113   -7.3342895   0.11627827 
  533000  0.093099176 -0.069218591    241.51256   -7.1929043   -7.3320076   0.13910326 
  534000  0.083964351   0.15577676    240.85848   -7.1968746   -7.3223291   0.12545455 
  535000  0.084127214 -0.011660507    241.25354   -7.2049863   -7.3306842   0.12569789 
  536000  0.082938801  -0.10882133    241.54696   -7.2101353   -7.3340576   0.12392223 
  537000  0.080927163   0.05876618    240.91799    -7.213181   -7.3340976   0.12091656 
  538000  0.082033124  0.096409799     240.7832   -7.2118442   -7.3344132   0.12256902 
  539000  0.083518549  -0.18398277    241.73967   -7.2130828   -7.3378712   0.12478846 
  540000  0.078660899 -0.077583341    241.34884   -7.2197529   -7.3372833   0.11753045 
  541000  0.085916721   0.34508415    239.79082   -7.2112498   -7.3396215   0.12837166 
  542000  0.081476735 -0.049144784    241.43519   -7.2070167   -7.3287544    0.1217377 
  543000   0.08932518  -0.24572951    242.23959   -7.1939571   -7.3274215   0.13346438 
  544000  0.086944284  0.095693185    240.70256   -7.2090794   -7.3389864   0.12990699 
  545000  0.078603482   0.10310724    240.78329    -7.215488   -7.3329326   0.11744466 
  546000  0.079902844  -0.12204374    241.62484   -7.2128886   -7.3322746   0.11938608 
  547000  0.092597498 -0.047956916    241.31261   -7.1971578   -7.3355115   0.13835368 
  548000  0.083572465    0.1481206    240.79167   -7.2006731   -7.3255422   0.12486901 
  549000  0.086864442 -0.079789438    241.44477   -7.2047696   -7.3345573   0.12978769 
  550000  0.081154811 -0.093818545     241.4268    -7.214835   -7.3360917    0.1212567 
  551000  0.081584218  0.075605328    240.48768   -7.2292041   -7.3511024   0.12189829 
  552000  0.078362243  0.070422074    240.73134   -7.2235708    -7.340655   0.11708421 
  553000  0.079095138  -0.12065956    241.66333   -7.2114746   -7.3296538   0.11817926 
  554000  0.082969046  0.044067759    241.10301   -7.2048741   -7.3288415   0.12396742 
  555000    0.0916594   0.14081868    240.59748   -7.2014971   -7.3384492   0.13695203 
  556000   0.08823012  -0.15958264    241.78924   -7.2009853   -7.3328135   0.13182821 
  557000  0.079085132 -0.094129337    241.51705   -7.2143601   -7.3325244   0.11816431 
  558000  0.084269596   0.20658841    240.24721    -7.215096   -7.3410066   0.12591063 
  559000  0.081560775  0.048301633    240.91998   -7.2144858   -7.3363491   0.12186327 
  560000  0.087451996   -0.2652121    242.45086   -7.1914297   -7.3220953   0.13066558 
  561000   0.08282806   0.16551612    240.71063   -7.2033227   -7.3270795   0.12375677 
  562000  0.078410999   0.41095867    239.73581   -7.2122633   -7.3294203   0.11715706 
  563000  0.078114294  -0.22512591    242.00875   -7.2165119   -7.3332257   0.11671374 
  564000  0.077940958 -0.093796702    241.30951   -7.2248047   -7.3412594   0.11645475 
  565000  0.078415229   0.14802124    240.46449   -7.2222118   -7.3393752   0.11716338 
  566000  0.085334717 -0.020011552     241.1668   -7.2095102   -7.3370122   0.12750207 
  567000  0.081528545 -0.099094342    241.56047   -7.2097618   -7.3315769   0.12181511 
  568000  0.076999769  0.092923539    240.76002   -7.2198082   -7.3348567   0.11504848 
  569000  0.076282083   0.10285052    240.56857   -7.2287566   -7.3427327   0.11397616 
  570000  0.079721631  -0.16341683    241.57141   -7.2215103   -7.3406256   0.11911533 
  571000  0.079179117 -0.087670574    241.46577   -7.2146797   -7.3329844   0.11830473 
  572000  0.087412579   0.42243248    239.62314   -7.2042141   -7.3348208   0.13060669 
  573000  0.089568614  -0.10416645    241.77914   -7.1910487   -7.3248768   0.13382811 
  574000  0.086135956  -0.27431619    242.07643   -7.2103366   -7.3390358   0.12869923 
  575000  0.087935915   0.11158222    240.45383   -7.2168981   -7.3482867   0.13138862 
  576000  0.083458675  0.092564076    240.79432   -7.2105893   -7.3352883     0.124699 
  577000  0.083843168  -0.14741774     241.9172   -7.1992937   -7.3245672   0.12527348 
  578000   0.08484496 -0.029861211    241.34803   -7.2027573   -7.3295276    0.1267703 
  579000  0.084593994   0.18414701    240.49374   -7.2074149   -7.3338103   0.12639532 
  580000  0.074463625 -0.036013816    240.99479   -7.2340169    -7.345276   0.11125913 
  581000  0.083889008  -0.24185879    242.00868   -7.2113295   -7.3366715   0.12534197 
  582000  0.087627269   0.22549252     240.2757   -7.2062558   -7.3371833   0.13092746 
  583000  0.080346366   0.30186658    239.90953   -7.2195705   -7.3396192   0.12004877 
  584000  0.078488979  -0.33536244    242.15056   -7.2265258   -7.3437994   0.11727357 
  585000   0.08391437 -0.084645177    241.25803    -7.218208   -7.3435879   0.12537987 
  586000  0.081599475   0.18654074    240.53762   -7.2082848   -7.3302059   0.12192109 
  587000  0.084048325 -0.032597229    241.27583   -7.2079452   -7.3335252   0.12558002 
  588000  0.079359316  -0.12155028    241.44559   -7.2217073   -7.3402813   0.11857398 
  589000  0.085422953  0.070286896    240.72206   -7.2147761   -7.3424101    0.1276339 
  590000  0.083328072  0.093481816    240.87538   -7.2066779   -7.3311818   0.12450386 
  591000  0.089778708  -0.24886944    242.23649   -7.1937846   -7.3279266   0.13414201 
  592000  0.084279497  0.037812787    241.10934   -7.2036549   -7.3295803   0.12592542 
  593000  0.084297455    0.4211274    239.50623   -7.2126107    -7.338563   0.12595225 
  594000  0.073676974  -0.19462019    241.88803   -7.2213344   -7.3314181   0.11008376 
  595000   0.08477373  -0.16742269    241.68015   -7.2115704   -7.3382342   0.12666387 
  596000  0.085989966  0.098474758    240.76725   -7.2065191   -7.3350002    0.1284811 
  597000  0.080411468  0.049747528    240.89656   -7.2164127   -7.3365588   0.12014604 
  598000  0.070204728 -0.036050552    241.38273   -7.2220953    -7.326991   0.10489574 
  599000  0.089586509 -0.056589859    241.17611   -7.2094749   -7.3433298   0.13385484 
  600000  0.084641796    0.1443497    240.57245   -7.2092121   -7.3356788   0.12646675 
Loop time of 267.557 on 1 procs for 500000 steps with 256 atoms

Pair  time (%) = 228.33 (85.339)
Neigh time (%) = 0.0311744 (0.0116515)
Comm  time (%) = 15.3905 (5.75222)
Outpt time (%) = 0.0176563 (0.00659909)
Other time (%) = 23.7871 (8.89048)

Nlocal:    256 ave 256 max 256 min
Histogram: 1 0 0 0 0 0 0 0 0 0
Nghost:    1431 ave 1431 max 1431 min
Histogram: 1 0 0 0 0 0 0 0 0 0
Neighs:    11008 ave 11008 max 11008 min
Histogram: 1 0 0 0 0 0 0 0 0 0

Total # of neighbors = 11008
Ave neighs/atom = 43
Neighbor list builds = 28
Dangerous builds = 0
    		  #run			5000

            ##UNLOCK THE DUMP AND FIX COMMANDS SO THEY CAN BE USED AGAIN LATER

                unfix 			1
    ##STOP 


