  LAMMPS description
 
      60   atoms
       0   bonds
       0   angles
       0   dihedrals
 
       1   atom types
       0   bond types
       0   angle types
       0   dihedral types
 
       0  100.000000     xlo xhi
       0  100.000000     ylo yhi
       0  100.000000     zlo zhi
  0.0000000      0.0000000      0.0000000     xy xz yz

  Masses

       1   12.010000

   Atoms

       1       1       1    0.000000   50.993000   53.067000   57.215000
       2       1       1    0.000000   50.683279   52.218329   56.100966
       3       1       1    0.000000   49.647773   51.164455   56.236582
       4       1       1    0.000000   48.956447   50.994323   57.481719
       5       1       1    0.000000   49.276830   51.872209   58.634102
       6       1       1    0.000000   50.277876   52.891012   58.502999
       7       1       1    0.000000   50.049324   54.235241   59.087913
       8       1       1    0.000000   50.623195   55.242010   58.161412
       9       1       1    0.000000   51.206418   54.519997   57.003888
      10       1       1    0.000000   51.103013   55.075969   55.685766
      11       1       1    0.000000   50.782629   54.198083   54.533383
      12       1       1    0.000000   50.576314   52.793440   54.737471
      13       1       1    0.000000   49.474700   52.095004   54.030400
      14       1       1    0.000000   48.900830   51.088236   54.956902
      15       1       1    0.000000   47.487419   50.844422   54.964944
      16       1       1    0.000000   46.772295   50.668433   56.252943
      17       1       1    0.000000   47.494381   50.742116   57.490038
      18       1       1    0.000000   46.911158   51.464129   58.647562
      19       1       1    0.000000   48.012772   52.162565   59.354632
      20       1       1    0.000000   47.791825   53.462061   59.920082
      21       1       1    0.000000   48.827331   54.515935   59.784466
      22       1       1    0.000000   48.137143   55.813059   59.578494
      23       1       1    0.000000   48.691915   56.786323   58.682825
      24       1       1    0.000000   49.955974   56.495968   57.962294
      25       1       1    0.000000   49.849009   57.071078   56.598799
      26       1       1    0.000000   50.412824   56.373093   55.479795
      27       1       1    0.000000   49.665881   56.296874   54.200114
      28       1       1    0.000000   49.894434   54.952644   53.615200
      29       1       1    0.000000   48.829479   54.277451   52.931659
      30       1       1    0.000000   48.616062   52.824454   53.142772
      31       1       1    0.000000   47.153996   52.572247   53.151091
      32       1       1    0.000000   46.599223   51.598983   54.046761
      33       1       1    0.000000   45.335164   51.889338   54.767291
      34       1       1    0.000000   45.442129   51.314227   56.130787
      35       1       1    0.000000   44.878314   52.012213   57.249791
      36       1       1    0.000000   45.625257   52.088432   58.529471
      37       1       1    0.000000   45.396704   53.432662   59.114385
      38       1       1    0.000000   46.461659   54.107855   59.797926
      39       1       1    0.000000   46.675077   55.560851   59.586813
      40       1       1    0.000000   45.816438   56.290302   58.699185
      41       1       1    0.000000   46.390308   57.297070   57.772683
      42       1       1    0.000000   47.803719   57.540884   57.764641
      43       1       1    0.000000   48.518843   57.716872   56.476642
      44       1       1    0.000000   47.796757   57.643190   55.239547
      45       1       1    0.000000   48.379980   56.921177   54.082023
      46       1       1    0.000000   47.278366   56.222741   53.374953
      47       1       1    0.000000   47.499313   54.923245   52.809503
      48       1       1    0.000000   46.463807   53.869371   52.945119
      49       1       1    0.000000   45.241814   54.150064   53.641672
      50       1       1    0.000000   44.667944   53.143296   54.568174
      51       1       1    0.000000   44.084720   53.865309   55.725698
      52       1       1    0.000000   44.188126   53.309337   57.043819
      53       1       1    0.000000   44.508508   54.187222   58.196202
      54       1       1    0.000000   44.714824   55.591866   57.992115
      55       1       1    0.000000   44.607859   56.166977   56.628619
      56       1       1    0.000000   44.298138   55.318306   55.514585
      57       1       1    0.000000   45.013262   55.494294   54.226586
      58       1       1    0.000000   46.014308   56.513097   54.095483
      59       1       1    0.000000   46.334691   57.390982   55.247866
      60       1       1    0.000000   45.643365   57.220851   56.493003

   Bonds


   Angles


   Dihedrals


