ITEM: TIMESTEP
4
ITEM: NUMBER OF ATOMS
256
ITEM: BOX BOUNDS
0 6.3454
0 6.3454
0 6.3454
ITEM: ATOMS fx fy fz 
-0.000863336 2.67321e-05 -0.00041423 
0.00184595 -0.000635569 -0.000895626 
0.000441622 0.00139454 0.000576076 
0.00131215 0.000127012 -0.00127428 
-0.00142767 0.00111197 -0.000779152 
0.00127737 0.0019182 -0.00139604 
-0.00172207 -0.000857736 0.00171933 
-0.00237989 0.000734308 -0.000658046 
-0.000787603 7.62987e-05 -0.000452902 
-0.000402022 -0.00367966 -0.00188213 
-0.00209171 -0.000712699 -0.000677364 
0.0024338 -0.00186697 -0.000938982 
-0.000797089 -0.000522927 0.000976382 
-2.51943e-05 3.1613e-05 -4.95695e-05 
-0.000679815 -0.000248525 0.00096636 
0.000653447 -0.00265167 -0.00116762 
-0.00159352 -0.00145801 0.000505728 
0.000550365 -0.000757917 0.00136216 
-0.00195332 0.00198363 -0.00159983 
-9.12978e-05 0.00381949 0.00165947 
0.00183257 0.00125146 0.000568757 
-0.000282984 -0.00084391 -0.00117267 
0.000263696 -0.00175951 0.000529369 
0.00257353 -0.00225298 0.00019285 
0.000200461 -0.000979882 0.000137025 
0.00174691 -0.000466942 -0.0019898 
-0.000661196 0.00129178 0.000114257 
-0.000314882 1.17507e-05 -0.00101403 
0.000583083 -0.00241827 0.000113188 
0.00148456 -1.69564e-05 0.000524083 
7.0999e-05 0.000602084 -0.000262295 
0.00337976 -0.00072709 -0.00122849 
-0.00494398 -0.00292223 0.0015624 
0.00316839 0.00139839 0.000451539 
-0.000495291 0.00175059 0.0022392 
-0.000592527 -0.00110231 0.00212072 
0.000112299 0.000854595 -0.000219863 
-0.000972292 -0.00200169 -0.000460683 
3.77026e-05 0.00214414 0.00355215 
0.00301461 0.000902504 -0.000356342 
0.000557055 -0.000254688 0.000124936 
0.000521301 0.00126084 -0.000249447 
-9.53828e-05 0.000438459 8.41189e-05 
-0.00165428 0.000439784 0.0012958 
0.000331647 0.00013164 -0.00263604 
-0.000890744 -0.000237334 -0.000295367 
0.00103617 0.00105855 0.00374201 
0.00117151 0.00158627 -0.00229576 
0.000266873 -0.000406037 -0.000308402 
-0.0006549 -0.00126155 0.00262797 
-0.00199811 -0.000227571 -0.00153253 
0.00122007 -0.000667481 -0.000374147 
-0.00270828 -0.00071538 0.000683281 
0.000877991 -0.00113052 -0.000194384 
0.00107678 0.000203009 0.00135867 
0.00270607 -0.000828935 0.00090639 
-0.00015909 0.000360422 -0.000600415 
-0.00115315 0.000549036 -0.000774019 
-0.0033623 -0.00136838 0.0012312 
-0.000382261 0.000658907 -0.000769725 
0.00226455 -0.0036567 0.00400459 
0.00156401 0.000903119 0.000545887 
-0.000306303 -0.000588744 0.00144255 
0.00168359 2.56651e-05 0.00516862 
-0.00181656 4.01061e-05 -0.00139627 
-0.000481728 -0.0016209 0.000767771 
0.000813005 0.000219499 0.00143763 
0.00270892 0.00112159 -0.000822767 
0.000533269 0.00106263 -0.000756098 
0.000513853 0.000617313 -0.00159927 
0.000514879 0.00134951 -0.000499289 
-0.00364926 0.000385513 0.00058126 
-0.00128676 0.00172152 0.000258962 
0.000912226 -0.000823187 0.000370544 
8.12881e-05 0.00086085 0.00109106 
0.000585707 0.00105074 -0.00217544 
0.00165655 -0.00177379 -1.43428e-05 
0.000433702 0.00160934 -0.00241603 
0.000861985 0.000479047 0.00175867 
0.000749413 0.000810191 0.000195556 
-0.00240552 -0.00150728 -0.00232951 
0.000213173 -0.000173426 0.000833005 
-0.000666728 0.000156003 0.000847534 
-0.00160232 0.00142682 -0.00191256 
0.00222618 0.00322135 0.00128462 
-0.00195524 -0.00150894 0.000643355 
-0.000402699 -0.00358827 -0.00131591 
-0.00125772 -0.000641866 0.00230412 
0.000431146 -0.00134748 -0.00113552 
0.000531318 -0.00276002 0.000722491 
-8.05577e-05 0.0016765 0.00119646 
0.00161142 0.00227333 -0.000318422 
-0.00123238 -0.00152712 -0.00130817 
-0.00050632 0.00201304 7.48009e-05 
0.000298922 -0.000135823 0.00018186 
-0.00103626 -0.000412566 -0.00178797 
-0.00244446 -0.0012013 0.000300424 
0.00218669 0.00220539 0.00360563 
-0.000876929 0.00151532 -0.000753307 
0.000892458 -0.0011087 0.000802155 
-2.14107e-05 0.000534046 -0.000478518 
-0.000906954 0.000253053 -0.000708782 
-0.00238488 3.79975e-05 0.00188389 
-0.00182823 -0.00289187 -0.000808504 
0.00176529 0.000662323 0.000589057 
-0.00110103 0.000885928 0.000242533 
3.56803e-05 8.07163e-05 -0.00191947 
-0.000350585 -0.00135736 0.00147918 
-0.00113599 -0.000336063 -0.000999195 
-0.0035883 -0.000883419 -9.11179e-05 
-0.000952672 0.000510626 0.00034573 
0.000788276 -0.000564879 0.000618627 
-0.00127913 0.000156627 0.000412364 
-0.000672161 0.000432073 0.000325835 
-0.000144665 0.00430132 0.00137876 
0.000980302 0.000241505 -0.00156996 
-0.000151951 0.000785838 0.001309 
-0.000432263 -0.00384948 0.00146961 
-0.000212533 -9.33888e-05 -0.00205666 
-0.000242181 0.000283222 -0.00147165 
-1.91842e-05 0.000326297 2.05566e-05 
-0.00163447 -0.001747 -0.000577898 
-0.00177866 8.59004e-05 -0.000736396 
0.000286544 -0.000872638 -0.00012279 
0.00209317 -0.00123938 0.000849398 
-0.000202469 0.00471171 -0.00196944 
-0.000618219 -0.00132214 0.00122774 
-0.000793385 -0.000442403 0.000228759 
0.000750717 -0.000140785 0.000729863 
-0.000138905 0.000135662 0.000563266 
0.00134066 0.0010833 0.00220156 
-0.00131281 -0.00127253 -0.000102962 
0.00113307 0.000309284 0.000733424 
-0.000960636 -0.000202404 0.0012196 
0.00109987 0.000610251 0.000787417 
-0.000421403 -0.000996797 0.000280976 
0.000593047 -0.00102673 -0.000964558 
0.000875468 -0.00122245 0.00106445 
-0.000810433 -0.00303195 0.000475987 
0.00169883 -0.00151381 0.00276675 
-0.000765886 -0.00137872 0.00364266 
0.000686002 -0.00486046 -0.000901765 
-0.000188171 -0.00163343 -0.00132379 
0.00043434 -0.00203633 -0.00128765 
-0.000257789 -0.000243801 0.000315883 
0.000256381 -0.001672 -0.000908541 
0.00106315 -0.000423282 0.00142402 
0.00255047 -0.000408643 0.00038882 
-0.000613665 -0.00178469 -0.000448314 
0.000886384 0.00113771 0.00152241 
0.000250534 0.00124208 0.00176002 
0.00123806 0.0026579 -0.000185905 
-0.00199631 -0.000650057 0.0012487 
0.00174944 0.000189955 -3.77545e-06 
0.00048576 0.000747144 0.00102716 
0.0023506 0.000109966 -0.0021008 
0.000702398 0.00213305 -0.00204134 
-0.000606925 -0.000415583 -0.000491894 
-0.000423189 0.0011571 -0.00211184 
0.00268141 -0.000304849 -0.000871777 
0.000251611 0.00146838 -0.00156238 
0.000631158 -0.000129247 -0.000118419 
-0.00239876 0.00159039 0.000555365 
0.00177165 -0.000652639 0.000242487 
0.00118627 -0.000790905 -0.000139743 
0.000879742 -0.00175233 -0.0021244 
-0.00189132 -0.000496219 2.13939e-05 
-0.00138056 0.00144243 0.000490483 
-0.000778758 -5.19393e-05 -0.0013333 
0.000860121 0.000172153 -0.00103549 
0.000991542 -0.000687821 -0.00157409 
-0.00176171 -0.00154565 0.000528298 
0.00105294 -0.0020156 0.000454712 
-0.000887257 -0.00128831 -0.00334978 
-0.00162828 0.001255 -0.00150937 
0.000696531 0.000578862 0.00152379 
0.0016887 -0.000840089 0.000694175 
-0.000924067 -0.00088056 0.00111204 
-0.00209017 3.75298e-05 -0.000148477 
0.000503533 0.000529409 0.00138836 
-0.000206127 0.00143445 -0.0032726 
-0.000533151 -0.00165728 -0.000841525 
-0.00087795 0.00197833 0.00121007 
7.30349e-06 0.000608485 -0.00281091 
-0.00140207 0.000834131 -0.00213489 
-0.000278481 0.000352644 -0.00212125 
0.00211855 0.00264058 0.000385065 
0.00138785 -0.000645657 -0.00019493 
0.00188681 -0.000117735 0.000173771 
-0.00115191 0.00252237 0.000643568 
-0.000156814 0.00306877 0.00110563 
-0.000282404 -0.00148345 -0.000244093 
-0.00266833 8.73217e-05 -0.00167374 
0.00184096 -0.000401739 -0.000705837 
-0.00214719 0.00232147 -0.00336636 
-0.00131472 -0.000768664 -7.29505e-05 
-0.00156667 -0.000345067 -0.000910426 
0.000800683 0.00222699 -9.29236e-05 
0.000611933 0.00213171 0.0011934 
0.000395101 0.000255916 0.000478011 
0.00167515 0.00138396 0.00156314 
-0.00177383 0.0015968 -0.00205856 
1.03193e-05 0.00248267 -0.000488108 
0.00226968 -0.000371867 -0.000727127 
-0.000101867 -6.67111e-06 -0.000202062 
0.000898763 0.00120815 -0.000145872 
0.00102411 0.00131576 0.000180696 
0.000396536 0.000123569 0.000175403 
-0.00140439 0.000528591 -4.84692e-05 
0.000333453 -0.00149584 0.00134041 
0.000786423 -0.000730619 -0.00112514 
-0.00145288 0.000296357 0.0010333 
0.000907867 0.00156912 0.00124222 
-0.003318 0.00269805 -0.00128222 
0.000809121 0.00064918 -0.000102709 
0.00122845 -0.00146385 -0.000842719 
-0.00113945 -0.00281918 0.00116304 
0.00156405 -0.000552126 -0.000101679 
0.000433169 -0.00150935 0.000428356 
-0.00100464 0.00299445 0.000638483 
-0.00131565 0.00194646 0.00024427 
-0.00201036 -0.00151999 0.000435966 
0.00195334 -0.00408803 0.00171296 
-0.00032631 -0.000700297 0.000529984 
-0.00150715 -0.0016814 -0.00205354 
0.00112316 3.87231e-05 -0.00133861 
0.00124768 0.000342219 0.00147076 
-0.00164349 0.000115918 0.00144637 
-0.00246666 -0.000150153 0.00107919 
-0.000749488 0.0005557 0.000907515 
0.00119037 0.00138654 0.000865819 
-0.000620648 0.00149362 -0.000357254 
6.35473e-05 -0.000926958 0.000908035 
0.00178195 -0.00144111 0.00069843 
0.00140599 0.000704731 -0.0011108 
-0.000130688 0.00129578 0.00142306 
0.0017522 -0.00133225 -0.00171312 
0.000197053 0.00109292 2.11512e-05 
3.73863e-05 -0.00116257 -0.00145949 
0.00184922 -0.00068426 0.00140498 
-0.000768557 0.00451722 0.000807962 
0.000133107 0.00172278 0.0010279 
0.00132054 0.00119917 -0.000401491 
-0.0012556 0.000651577 0.000378475 
-0.00140053 2.44172e-05 -0.000284337 
0.00164016 -0.00057293 -0.00357731 
-1.95929e-05 0.000178184 -0.000995562 
-0.0009579 0.00114831 -0.00116887 
-0.000107286 -0.00174318 -0.000118701 
-0.000137123 0.000755652 -0.00353274 
0.00036997 -0.000233542 -0.00100766 
0.00122396 -0.000404503 0.000754914 
-0.00122416 -0.00210169 -4.47885e-05 
7.46749e-05 0.000796629 0.00131457 
0.00197779 0.000780803 0.000856086 
-0.000780639 -0.000376247 -0.000789842 
ITEM: TIMESTEP
5
ITEM: NUMBER OF ATOMS
256
ITEM: BOX BOUNDS
0 6.3454
0 6.3454
0 6.3454
ITEM: ATOMS fx fy fz 
-0.000863795 2.61164e-05 -0.000412983 
0.00184045 -0.000636554 -0.00088809 
0.000440377 0.00138761 0.000575137 
0.00130755 0.000122678 -0.00127218 
-0.00142434 0.00111055 -0.000774145 
0.00127367 0.00190661 -0.00139308 
-0.00171672 -0.000854324 0.00171961 
-0.00237148 0.000730579 -0.000659898 
-0.000781571 7.51239e-05 -0.000453148 
-0.000399275 -0.00365835 -0.00186264 
-0.00208975 -0.000712423 -0.000676881 
0.00241221 -0.00186277 -0.000937333 
-0.000793261 -0.000521305 0.000971523 
-2.5032e-05 2.98364e-05 -4.44605e-05 
-0.000674801 -0.000246798 0.000964781 
0.000655036 -0.00263762 -0.00115988 
-0.00158189 -0.00144696 0.000506059 
0.000539481 -0.000755081 0.0013557 
-0.00193437 0.00196258 -0.00158288 
-9.34255e-05 0.00378591 0.00165644 
0.00182533 0.00124896 0.000567007 
-0.000283281 -0.000835654 -0.00117128 
0.00026232 -0.00175224 0.000529046 
0.00255982 -0.00223733 0.000193929 
0.000197177 -0.00097536 0.000133467 
0.00173343 -0.00046531 -0.00197538 
-0.000655106 0.00127919 0.000111464 
-0.000313323 1.37744e-05 -0.00101337 
0.00059126 -0.00239733 0.000115628 
0.00147546 -1.40099e-05 0.00051773 
6.75871e-05 0.000604917 -0.000254554 
0.00337775 -0.000718283 -0.00122474 
-0.00493781 -0.00291782 0.00156661 
0.0031441 0.00139539 0.000444919 
-0.000496136 0.00174397 0.00221278 
-0.000587078 -0.00110131 0.00211928 
0.000112906 0.00085163 -0.000219011 
-0.000971536 -0.00198776 -0.000458835 
4.47642e-05 0.00212638 0.00352317 
0.00298669 0.000907753 -0.000353961 
0.000551054 -0.000259181 0.000129001 
0.000521559 0.00125533 -0.000245427 
-9.62852e-05 0.000438589 8.22367e-05 
-0.00164881 0.000436398 0.00129075 
0.000339226 0.000129377 -0.00261811 
-0.000890423 -0.00023713 -0.000293817 
0.00103566 0.00105487 0.00371367 
0.00116093 0.00158483 -0.00228348 
0.000269108 -0.000405231 -0.000305159 
-0.000656482 -0.00125032 0.00260566 
-0.00199148 -0.000221039 -0.00152688 
0.00121943 -0.000658869 -0.000373018 
-0.00268834 -0.000711149 0.000676495 
0.000870106 -0.00112676 -0.000195392 
0.00107266 0.000200339 0.00135372 
0.00268727 -0.000804591 0.000903835 
-0.000152123 0.000358296 -0.000605927 
-0.00115128 0.000545146 -0.000770795 
-0.00332906 -0.00136073 0.00123195 
-0.0003837 0.000656225 -0.000766975 
0.00225249 -0.00362409 0.00397368 
0.0015544 0.00089583 0.000545605 
-0.000304551 -0.000584764 0.00144023 
0.0016658 2.6058e-05 0.0051245 
-0.00180857 3.92266e-05 -0.00138844 
-0.000476942 -0.00161448 0.000760707 
0.00080479 0.000216956 0.00142618 
0.00268614 0.00111169 -0.000821678 
0.000524184 0.00105994 -0.000752711 
0.000507131 0.000614137 -0.00159548 
0.000517555 0.0013453 -0.000497156 
-0.0036149 0.000382634 0.00056672 
-0.00128473 0.00171052 0.000258476 
0.000911582 -0.000816845 0.000368545 
8.272e-05 0.000855656 0.00108475 
0.000582016 0.00103669 -0.00216783 
0.00165169 -0.00176641 -2.08192e-05 
0.000428399 0.00159297 -0.00239913 
0.000855785 0.000475948 0.00174971 
0.000745394 0.000804762 0.000196278 
-0.0023953 -0.0015029 -0.00231167 
0.000208688 -0.000171562 0.000835131 
-0.000662676 0.000156801 0.00084728 
-0.0015979 0.00143351 -0.00191002 
0.0022244 0.00321494 0.0012785 
-0.00193865 -0.00150414 0.000637276 
-0.000398901 -0.00357505 -0.0013126 
-0.00124483 -0.000637181 0.00230354 
0.000425573 -0.00134364 -0.00113243 
0.000523682 -0.00274405 0.000715175 
-8.63035e-05 0.00166398 0.00119453 
0.00159792 0.00225208 -0.00032076 
-0.00122496 -0.00151726 -0.00130679 
-0.000496716 0.00200221 7.67905e-05 
0.000294279 -0.000132025 0.000186367 
-0.00102535 -0.00041369 -0.00177742 
-0.00243367 -0.00118673 0.000297335 
0.00216044 0.00219232 0.00358324 
-0.000880419 0.00151029 -0.000756748 
0.000888791 -0.00110369 0.000798491 
-1.8245e-05 0.00053159 -0.000472908 
-0.000907809 0.000250918 -0.000705829 
-0.00237519 3.32481e-05 0.00187813 
-0.00180873 -0.00286819 -0.000807074 
0.00175643 0.000651788 0.000590174 
-0.00109147 0.000882673 0.000251645 
3.6512e-05 8.40723e-05 -0.00191482 
-0.000347549 -0.00135505 0.00147754 
-0.00113597 -0.000343186 -0.00099114 
-0.00355816 -0.00086985 -9.05086e-05 
-0.000948039 0.000505811 0.000346817 
0.000781925 -0.000559221 0.000619712 
-0.00127986 0.000150906 0.000413475 
-0.000669792 0.000430785 0.000325914 
-0.000142438 0.0042808 0.00136588 
0.000975605 0.000243402 -0.00156388 
-0.000147413 0.000782853 0.00129989 
-0.000426977 -0.00382824 0.00145713 
-0.000209025 -8.90647e-05 -0.00204931 
-0.000233561 0.000280096 -0.00147047 
-1.73083e-05 0.000323316 1.79274e-05 
-0.00162012 -0.00173407 -0.000570405 
-0.00176536 8.34962e-05 -0.000719807 
0.000284046 -0.000869203 -0.000126163 
0.00208085 -0.00122381 0.000840965 
-0.000201287 0.00466307 -0.0019423 
-0.000612986 -0.00131409 0.0012195 
-0.000788813 -0.000437898 0.000230347 
0.000752206 -0.000139277 0.000722071 
-0.000133474 0.000134959 0.000565831 
0.00133519 0.0010834 0.00219264 
-0.00131181 -0.00126938 -9.94127e-05 
0.00112001 0.000312485 0.000726431 
-0.000953333 -0.000206971 0.0012149 
0.00109162 0.000604287 0.000778221 
-0.000418695 -0.00099804 0.000282902 
0.000593463 -0.0010245 -0.000959697 
0.000877901 -0.00120905 0.00106266 
-0.000812983 -0.00301855 0.000474893 
0.00168189 -0.00149996 0.00275338 
-0.000757322 -0.00136149 0.00362379 
0.000671133 -0.00480528 -0.000905481 
-0.000189172 -0.00163147 -0.00132128 
0.000436747 -0.00203237 -0.00128727 
-0.000257787 -0.000241932 0.000317579 
0.000260058 -0.00165218 -0.000905848 
0.00105399 -0.000423264 0.00141089 
0.00253505 -0.000402925 0.000386618 
-0.000598794 -0.00177744 -0.000444762 
0.000886303 0.00113292 0.00152527 
0.000240184 0.00122881 0.00175622 
0.0012232 0.00262737 -0.000179604 
-0.00198578 -0.00064551 0.00124757 
0.00173497 0.000190522 -1.81788e-06 
0.000482493 0.000742026 0.00101824 
0.00232803 0.000114211 -0.00209167 
0.000699079 0.00211872 -0.00202495 
-0.000604943 -0.000410399 -0.000491731 
-0.000421525 0.00114391 -0.00209885 
0.00266972 -0.00031057 -0.000870705 
0.000242873 0.00145727 -0.00155392 
0.000625673 -0.000132265 -0.000101578 
-0.00238276 0.00157663 0.000555928 
0.001759 -0.000641414 0.000246278 
0.00118146 -0.00078994 -0.000140435 
0.000880438 -0.00173575 -0.00211079 
-0.00188406 -0.000495126 2.01677e-05 
-0.00138034 0.00143357 0.000488896 
-0.000774387 -5.19149e-05 -0.00132935 
0.000853412 0.000164876 -0.0010279 
0.000984068 -0.000681531 -0.00156679 
-0.00175075 -0.00153294 0.000522859 
0.00105053 -0.00200756 0.000446978 
-0.000889164 -0.00128014 -0.00332136 
-0.00161605 0.00125235 -0.00150614 
0.000695892 0.000578916 0.001518 
0.00168173 -0.000837889 0.000692453 
-0.000921488 -0.000874716 0.00111201 
-0.00208515 3.63666e-05 -0.000153899 
0.000509474 0.000536899 0.00138726 
-0.000206233 0.00140769 -0.00325187 
-0.000533995 -0.00165246 -0.000841735 
-0.000870811 0.00196985 0.00120958 
6.37518e-06 0.000599556 -0.00279916 
-0.00138917 0.000819034 -0.00211258 
-0.000278853 0.000347138 -0.00210997 
0.00209915 0.00261519 0.000381242 
0.00138197 -0.000637336 -0.000196175 
0.00187877 -0.000118481 0.000170299 
-0.00114807 0.00251763 0.000641589 
-0.000150121 0.00305812 0.00110056 
-0.000282889 -0.00147896 -0.000238769 
-0.00264439 8.27385e-05 -0.0016656 
0.00183456 -0.000395204 -0.000697389 
-0.00214816 0.00231497 -0.00337209 
-0.0013067 -0.000768661 -6.51672e-05 
-0.00155693 -0.000349432 -0.0009087 
0.000801583 0.00221997 -8.96953e-05 
0.00061415 0.00212424 0.00118524 
0.000385942 0.00025433 0.000472004 
0.00167054 0.00137781 0.00156083 
-0.00176252 0.00159187 -0.00204848 
1.56034e-05 0.00246143 -0.00048086 
0.00226041 -0.000371799 -0.000726126 
-0.000102331 -1.4725e-06 -0.000199724 
0.000897276 0.00119948 -0.00014456 
0.00101032 0.0013022 0.000180966 
0.000398537 0.000121983 0.000168594 
-0.00139063 0.000519883 -4.81593e-05 
0.000335882 -0.00149497 0.00133501 
0.000785582 -0.000728441 -0.00111672 
-0.00143853 0.000285497 0.0010268 
0.000899179 0.00155928 0.0012401 
-0.0032885 0.00265586 -0.00127631 
0.000808912 0.000647279 -0.000100516 
0.00122495 -0.00145315 -0.000836881 
-0.00112191 -0.00279117 0.00115792 
0.00154468 -0.000542313 -0.00010897 
0.000430928 -0.00149018 0.000428655 
-0.00100828 0.00297436 0.000626171 
-0.00131193 0.00194349 0.00024304 
-0.00200177 -0.00151697 0.000431382 
0.00193047 -0.00405495 0.00170078 
-0.000327312 -0.000689872 0.000530379 
-0.00150698 -0.00167026 -0.00205311 
0.00112047 3.50642e-05 -0.00132846 
0.0012464 0.000337814 0.00146208 
-0.00163392 0.000117256 0.00143925 
-0.00245357 -0.000146013 0.00107664 
-0.000750011 0.0005544 0.000905801 
0.00118656 0.00138386 0.000861967 
-0.000618923 0.00148224 -0.000359324 
6.74725e-05 -0.000920799 0.000904009 
0.00176475 -0.00142452 0.000691876 
0.00140009 0.000697995 -0.00110882 
-0.000133179 0.00129295 0.00141812 
0.00174516 -0.00132755 -0.00170481 
0.000198727 0.00109379 2.1792e-05 
4.46701e-05 -0.00115857 -0.00144675 
0.00184282 -0.000688965 0.00139728 
-0.000754698 0.00446008 0.000796648 
0.000138651 0.00171142 0.00102202 
0.00131661 0.00120152 -0.000398983 
-0.00125137 0.000652562 0.00036833 
-0.00138186 2.37411e-05 -0.000282003 
0.00164087 -0.00057215 -0.00357242 
-2.00897e-05 0.000177601 -0.000996232 
-0.000960628 0.00114531 -0.00116819 
-0.000119214 -0.00171895 -0.000114801 
-0.000143758 0.000747467 -0.00352608 
0.000370521 -0.000231294 -0.00100387 
0.00121657 -0.000393282 0.000759314 
-0.0012094 -0.00208162 -4.3413e-05 
6.96427e-05 0.000791932 0.00131477 
0.00197002 0.000778363 0.000854527 
-0.000776332 -0.000377481 -0.00078344 
