
#------------ NVE rescale -----------------------------------------
	velocity 	all create ${T_run} ${seed} rot yes dist gaussian
	velocity 	all create 0.08267367665 ${seed} rot yes dist gaussian
	velocity 	all create 0.08267367665 1111 rot yes dist gaussian
	fix 		1 all nve
	fix 		2 all temp/rescale 1 ${T_run} ${T_run} 0.01 1.0
	fix 		2 all temp/rescale 1 0.08267367665 ${T_run} 0.01 1.0
	fix 		2 all temp/rescale 1 0.08267367665 0.08267367665 0.01 1.0
	timestep	${dt}
	timestep	0.002
	thermo_style  	custom step temp press etotal vol
	thermo		1000
	run             100000	
Memory usage per processor = 1.37387 Mbytes
Step Temp Press TotEng Volume 
       0  0.082673677  -0.68490949   -6.7531724    255.49183 
    1000  0.079408291 -0.012189511   -6.6339476    255.49183 
    2000  0.080749658 -0.025579787   -6.6336598    255.49183 
    3000  0.079914844 -0.010996806   -6.6336534    255.49183 
    4000  0.084058079 -0.035654769   -6.6336534    255.49183 
    5000    0.0816051 -0.023111431   -6.6336541    255.49183 
    6000  0.080154787 0.0030691986   -6.6336553    255.49183 
    7000   0.08300928 -0.052184825   -6.6336545    255.49183 
    8000  0.078471122 -0.014895483   -6.6336698    255.49183 
    9000  0.078467363 0.00052625311   -6.6336661    255.49183 
   10000  0.078902241 0.0031576693   -6.6336658    255.49183 
   11000  0.079027123  0.016004449    -6.633512    255.49183 
   12000   0.08010223 -0.038600416   -6.6335083    255.49183 
   13000   0.08218021 -0.030476574   -6.6337808    255.49183 
   14000  0.083439866 -0.041476236    -6.633787    255.49183 
   15000  0.073309984  0.044684504   -6.6337874    255.49183 
   16000  0.085119166 -0.057946167   -6.6337894    255.49183 
   17000  0.081598405  -0.03764955   -6.6337859    255.49183 
   18000  0.084396915  -0.06972164   -6.6337867    255.49183 
   19000  0.083134476   0.06469847   -6.6188393    255.49183 
   20000  0.088904506 -0.0069684168   -6.6188433    255.49183 
   21000  0.079349787  0.068076794   -6.6187741    255.49183 
   22000  0.078048127 -0.0062766951   -6.6337625    255.49183 
   23000  0.079645047 -0.010313521   -6.6337605    255.49183 
   24000  0.083250751 -0.027864937   -6.6337622    255.49183 
   25000  0.078116211 -0.0087362912   -6.6337578    255.49183 
   26000  0.080870815 0.0047753466   -6.6337574    255.49183 
   27000  0.080993524 -0.015359249   -6.6337607    255.49183 
   28000  0.077941174 0.0044023436   -6.6337575    255.49183 
   29000  0.080274566 -0.021678547   -6.6337594    255.49183 
   30000  0.082681594 -0.036834036   -6.6337636    255.49183 
   31000  0.086131085 -0.068217918   -6.6337652    255.49183 
   32000  0.084471919 -0.041102085   -6.6337614    255.49183 
   33000  0.088228165  -0.07510301   -6.6337629    255.49183 
   34000  0.090808989 -0.021835043   -6.6187351    255.49183 
   35000  0.083711974 -0.045970213    -6.634062    255.49183 
   36000  0.085227075 -0.043546311   -6.6340603    255.49183 
   37000  0.081944171 -0.038349912   -6.6340606    255.49183 
   38000  0.079564316 -0.028287927    -6.634057    255.49183 
   39000  0.079257115 -0.0093866815    -6.634057    255.49183 
   40000  0.081840145 -0.040973392   -6.6340635    255.49183 
   41000  0.081278532 -0.044649924   -6.6340638    255.49183 
   42000  0.080091272   -0.0200341   -6.6340589    255.49183 
   43000   0.08114437 -0.035888729   -6.6340554    255.49183 
   44000  0.078076764 0.0044736047   -6.6340496    255.49183 
   45000  0.086241883 -0.059899653    -6.634055    255.49183 
   46000  0.080973893 -0.046067259   -6.6340524    255.49183 
   47000  0.083147191 -0.060565018   -6.6340576    255.49183 
   48000   0.08062021 -0.015483543   -6.6340627    255.49183 
   49000  0.079527772 -0.020593655   -6.6340649    255.49183 
   50000  0.082049754 -0.010619597   -6.6340679    255.49183 
   51000  0.081198098 -0.035392139   -6.6340687    255.49183 
   52000  0.078931903 -0.041157922   -6.6340696    255.49183 
   53000  0.078404202 -0.011580353   -6.6340687    255.49183 
   54000  0.082066785 -0.017896658   -6.6340702    255.49183 
   55000  0.085457195 -0.064128224   -6.6340716    255.49183 
   56000  0.085968639 -0.044727761   -6.6340689    255.49183 
   57000  0.081199094 -0.017018147   -6.6340682    255.49183 
   58000  0.081418398  -0.03791822   -6.6340676    255.49183 
   59000  0.082717284 -0.022302986   -6.6340666    255.49183 
   60000  0.086040075 -0.045051034   -6.6340675    255.49183 
   61000  0.078282386 -0.012144365    -6.634065    255.49183 
   62000  0.079523601 0.00012903417   -6.6340709    255.49183 
   63000   0.08619859 -0.084147296   -6.6340697    255.49183 
   64000  0.079631441 -0.044801661   -6.6340686    255.49183 
   65000  0.081764229 -0.041843292   -6.6340751    255.49183 
   66000  0.080623696 -0.048525025   -6.6340701    255.49183 
   67000  0.080037837 -0.015159146   -6.6340752    255.49183 
   68000  0.077477907 0.0019423927   -6.6340769    255.49183 
   69000  0.085381738 -0.049822223   -6.6340797    255.49183 
   70000     0.080924 -0.019520415   -6.6340773    255.49183 
   71000  0.081420874 -0.0092232749   -6.6340766    255.49183 
   72000  0.081127949 -0.012749535   -6.6340769    255.49183 
   73000  0.082822734 -0.042904701   -6.6344869    255.49183 
   74000  0.082812631 -0.026432484   -6.6344877    255.49183 
   75000  0.080564553 -0.043803239    -6.634485    255.49183 
   76000  0.080458425 -0.028514545   -6.6344844    255.49183 
   77000  0.078366633 -0.010677957   -6.6344847    255.49183 
   78000   0.07968189 -0.023616012   -6.6344834    255.49183 
   79000  0.076565529 -0.032946415   -6.6344846    255.49183 
   80000   0.08337451 -0.049611435   -6.6344898    255.49183 
   81000  0.079595896 -0.023618646   -6.6344917    255.49183 
   82000   0.08027101 0.00085677368   -6.6346868    255.49183 
   83000  0.073302236  0.043757666   -6.6346827    255.49183 
   84000  0.079314599  0.023940145   -6.6346805    255.49183 
   85000   0.08068397 -0.027240255   -6.6346825    255.49183 
   86000  0.077809512 -0.012058431   -6.6346758    255.49183 
   87000  0.081799035 -0.014190086   -6.6346776    255.49183 
   88000  0.080500305 -0.016087623   -6.6346786    255.49183 
   89000  0.080098259 -0.023420484   -6.6346774    255.49183 
   90000  0.079532673   0.01654967   -6.6346767    255.49183 
   91000  0.079986655 -0.0023645667   -6.6346791    255.49183 
   92000  0.078514259 0.0061956053   -6.6346776    255.49183 
   93000  0.081334311 -0.029928603   -6.6346765    255.49183 
   94000  0.084686228 -0.034660651   -6.6346828    255.49183 
   95000  0.078657887 -0.012261888   -6.6346798    255.49183 
   96000  0.081848862 -0.036376536   -6.6346777    255.49183 
   97000    0.0873518  0.012987244   -6.6194189    255.49183 
   98000  0.087901199  0.019587695   -6.6194191    255.49183 
   99000  0.084167157 -0.036740679   -6.6345735    255.49183 
  100000    0.0860364 0.0095246976   -6.6194646    255.49183 
Loop time of 26.8101 on 1 procs for 100000 steps with 256 atoms

Pair  time (%) = 24.0427 (89.6777)
Neigh time (%) = 0.58554 (2.18402)
Comm  time (%) = 1.18881 (4.43418)
Outpt time (%) = 0.00373888 (0.0139458)
Other time (%) = 0.989344 (3.69018)

Nlocal:    256 ave 256 max 256 min
Histogram: 1 0 0 0 0 0 0 0 0 0
Nghost:    1453 ave 1453 max 1453 min
Histogram: 1 0 0 0 0 0 0 0 0 0
Neighs:    11416 ave 11416 max 11416 min
Histogram: 1 0 0 0 0 0 0 0 0 0

Total # of neighbors = 11416
Ave neighs/atom = 44.5938
Neighbor list builds = 946
Dangerous builds = 0
#	run             1000
	unfix 		1
	unfix 		2
#------------ NVE -----------------------------------------------------------------------------	
	fix 		1 all nve
	timestep	${dt}
	timestep	0.002
	fix		myave all ave/atom 1 10000 100000 x y z
	dump		1 all custom 100000 x.dump f_myave[1] f_myave[2] f_myave[3]
	dump_modify 	1 sort id
	thermo_style  	custom step temp press etotal vol
	thermo		1000
	run             500000	
Memory usage per processor = 1.74063 Mbytes
Step Temp Press TotEng Volume 
  100000    0.0860364 0.0095246976   -6.6194646    255.49183 
  101000  0.084784225  0.014742191   -6.6194617    255.49183 
  102000  0.085028695  0.029894994    -6.619464    255.49183 
  103000  0.084141152  0.021725971   -6.6194639    255.49183 
  104000  0.086117234  0.028140949   -6.6194679    255.49183 
  105000   0.08186937  0.027729882   -6.6194694    255.49183 
  106000  0.086296122 -0.0053486879    -6.619465    255.49183 
  107000  0.088201101 -0.0099022498   -6.6194674    255.49183 
  108000  0.086400102  0.005080785   -6.6194672    255.49183 
  109000  0.093718143 -0.044976534   -6.6194699    255.49183 
  110000  0.085785163  0.017123323   -6.6194643    255.49183 
  111000  0.092197826 -0.0096819727   -6.6194682    255.49183 
  112000  0.094004149 -0.070758164   -6.6194701    255.49183 
  113000  0.089441976 -0.035605426   -6.6194724    255.49183 
  114000  0.098135034 -0.075692446   -6.6194711    255.49183 
  115000  0.098172943 -0.062884865   -6.6194703    255.49183 
  116000  0.093949565 -0.036141034   -6.6194704    255.49183 
  117000  0.098785708 -0.083506113   -6.6194746    255.49183 
  118000  0.089255347 -0.009933103   -6.6194733    255.49183 
  119000  0.090784342 -0.0032718592   -6.6194818    255.49183 
  120000  0.089900908 -0.011067768   -6.6194834    255.49183 
  121000  0.088897114 -0.0073517094   -6.6194789    255.49183 
  122000  0.094516754 -0.039434378   -6.6194746    255.49183 
  123000  0.090049118 -0.053336387    -6.619482    255.49183 
  124000  0.093572649 -0.041991845   -6.6194826    255.49183 
  125000  0.091825922 -0.011322231   -6.6194856    255.49183 
  126000  0.088341081 -0.021357352   -6.6194883    255.49183 
  127000  0.092072913 -0.0092097923   -6.6194905    255.49183 
  128000  0.093704631 -0.025952065   -6.6194917    255.49183 
  129000  0.097949131 -0.074987036   -6.6194995    255.49183 
  130000  0.089492452 -0.0099388554    -6.619496    255.49183 
  131000  0.091014414 -0.039652398   -6.6194927    255.49183 
  132000  0.092026648 -0.047620877   -6.6194888    255.49183 
  133000  0.093679355 -0.028393356   -6.6194952    255.49183 
  134000  0.091707136 -0.064105266   -6.6194964    255.49183 
  135000  0.090747409 -0.025930093   -6.6194982    255.49183 
  136000  0.091984652  -0.03979785   -6.6194982    255.49183 
  137000  0.089654855 -0.020690489   -6.6194987    255.49183 
  138000  0.092278495 -0.030668621   -6.6195014    255.49183 
  139000  0.098365838 -0.089260086   -6.6195009    255.49183 
  140000  0.088905299  0.026255932   -6.6194977    255.49183 
  141000  0.084495143  0.010300614   -6.6194862    255.49183 
  142000  0.092615851 -0.070335318   -6.6194893    255.49183 
  143000  0.096774362 -0.043375522   -6.6194932    255.49183 
  144000  0.089185139 -0.020058436   -6.6194851    255.49183 
  145000  0.088605299 -0.031538586   -6.6194823    255.49183 
  146000  0.093454039 -0.034100284   -6.6194784    255.49183 
  147000  0.092416173 -0.028205458   -6.6194846    255.49183 
  148000  0.090774311 -0.030334618   -6.6194824    255.49183 
  149000  0.094611341 -0.058215867   -6.6194843    255.49183 
  150000  0.091619935 -0.019564913   -6.6194815    255.49183 
  151000  0.093038959 -0.034364824   -6.6194841    255.49183 
  152000  0.096662965 -0.069449235   -6.6194813    255.49183 
  153000  0.092145908 -0.029008689   -6.6194802    255.49183 
  154000   0.10209258 -0.099982149   -6.6194876    255.49183 
  155000  0.091702181 -0.051986492   -6.6194683    255.49183 
  156000  0.094674969 -0.065703612   -6.6194666    255.49183 
  157000  0.098176394 -0.093167014    -6.619469    255.49183 
  158000  0.096948587 -0.080076439   -6.6194704    255.49183 
  159000   0.09351395 -0.019314574    -6.619466    255.49183 
  160000  0.085364248  0.034720717   -6.6194543    255.49183 
  161000  0.093777771 -0.053085795   -6.6194585    255.49183 
  162000  0.093658728 -0.045354582   -6.6194551    255.49183 
  163000  0.094183119  -0.05958753    -6.619455    255.49183 
  164000  0.090833266 -0.010756909   -6.6194547    255.49183 
  165000  0.090644354 -0.023184925   -6.6194541    255.49183 
  166000  0.090522338  0.024068941   -6.6194544    255.49183 
  167000   0.09454695 -0.047766137   -6.6194579    255.49183 
  168000  0.091082151 -0.026470352   -6.6194571    255.49183 
  169000  0.092551068  -0.03305919    -6.619461    255.49183 
  170000  0.094784957 -0.059229922   -6.6194616    255.49183 
  171000  0.089545481  -0.02507897   -6.6194559    255.49183 
  172000   0.09069605 -0.031416492   -6.6194636    255.49183 
  173000    0.0892191 -0.015805154   -6.6194605    255.49183 
  174000  0.089612117 -0.020461346   -6.6194539    255.49183 
  175000  0.087892944 -0.0097805382   -6.6194582    255.49183 
  176000  0.087337415 -0.0079286533   -6.6194553    255.49183 
  177000  0.089186889 -0.020508755   -6.6194558    255.49183 
  178000  0.091080507 -0.032422626   -6.6194555    255.49183 
  179000  0.087025439 -0.0087690357   -6.6194492    255.49183 
  180000  0.088241425  -0.02287838   -6.6194519    255.49183 
  181000  0.089999582 -0.010627454   -6.6194515    255.49183 
  182000  0.089048317 -0.0068725367   -6.6194561    255.49183 
  183000  0.087953028 -0.011733096   -6.6194504    255.49183 
  184000  0.087844302 0.0014190594   -6.6194496    255.49183 
  185000  0.087780457 0.0040323089   -6.6194543    255.49183 
  186000  0.091101303 -0.026809661     -6.61945    255.49183 
  187000  0.092942469 -0.023942943   -6.6194478    255.49183 
  188000  0.097679795 -0.056221068   -6.6194524    255.49183 
  189000  0.085809425  0.016274826   -6.6194454    255.49183 
  190000  0.096927168 -0.065765418   -6.6194515    255.49183 
  191000  0.091414778 -0.036261604   -6.6194492    255.49183 
  192000  0.097591145 -0.089695744   -6.6194529    255.49183 
  193000  0.092990568 -0.043465362   -6.6194449    255.49183 
  194000   0.09058888 -0.042957063   -6.6194433    255.49183 
  195000  0.091548887 -0.025448727   -6.6194476    255.49183 
  196000  0.093477976 -0.032727432   -6.6194469    255.49183 
  197000   0.09524985 -0.056191985   -6.6194468    255.49183 
  198000  0.090122884  0.021251183   -6.6194473    255.49183 
  199000  0.094866149 -0.048182622   -6.6194454    255.49183 
  200000  0.095534755 -0.056520679    -6.619447    255.49183 
  201000  0.093300505 -0.056370916   -6.6194434    255.49183 
  202000  0.091655338 -0.047966796   -6.6194401    255.49183 
  203000  0.094149946 -0.038726411   -6.6194414    255.49183 
  204000  0.088486149 -0.018140383   -6.6194405    255.49183 
  205000  0.088219094  0.014519202   -6.6194385    255.49183 
  206000  0.091303458 -0.030164118   -6.6194407    255.49183 
  207000  0.094696282 -0.054102579   -6.6194399    255.49183 
  208000   0.09844417 -0.069439468   -6.6194436    255.49183 
  209000  0.086268314 -0.0034331187   -6.6194398    255.49183 
  210000   0.09276591 -0.019131107    -6.619439    255.49183 
  211000  0.092606699 -0.054555684    -6.619437    255.49183 
  212000  0.091441154  -0.04465986   -6.6194373    255.49183 
  213000  0.088317953 -0.0092993858   -6.6194346    255.49183 
  214000  0.089358781 -0.013846918   -6.6194376    255.49183 
  215000  0.088950988  0.012694105   -6.6194419    255.49183 
  216000  0.090375887 -0.015272227   -6.6194389    255.49183 
  217000  0.096326285 -0.062347704   -6.6194466    255.49183 
  218000   0.09912503 -0.066669037   -6.6194399    255.49183 
  219000  0.087937524 -0.013628844    -6.619434    255.49183 
  220000  0.095243928 -0.045629805   -6.6194428    255.49183 
  221000  0.089386537 -0.014456032   -6.6194394    255.49183 
  222000  0.092475838 -0.013537185   -6.6194454    255.49183 
  223000  0.094210068 -0.068411582   -6.6194389    255.49183 
  224000  0.090654334 3.8651223e-05   -6.6194378    255.49183 
  225000  0.087843341 -0.0034018806   -6.6194334    255.49183 
  226000  0.091368633  -0.02775305   -6.6194361    255.49183 
  227000  0.091678095 -0.033117238   -6.6194309    255.49183 
  228000  0.094913721 -0.024153448   -6.6194311    255.49183 
  229000  0.090075839 -0.0017622768   -6.6194312    255.49183 
  230000  0.095932345 -0.076958417   -6.6194277    255.49183 
  231000   0.08666004 -0.00087170657   -6.6194293    255.49183 
  232000  0.090034405  -0.04000189   -6.6194253    255.49183 
  233000  0.092464403 -0.046791935   -6.6194265    255.49183 
  234000  0.088497385 -0.021243944   -6.6194247    255.49183 
  235000  0.089670373 -0.015825601   -6.6194225    255.49183 
  236000  0.091819799 -0.0007185311   -6.6194225    255.49183 
  237000  0.092011363 -0.012825717   -6.6194218    255.49183 
  238000  0.092708293 -0.015549411   -6.6194179    255.49183 
  239000   0.09853589 -0.082783987   -6.6194189    255.49183 
  240000  0.095388886 -0.036543999   -6.6194086    255.49183 
  241000  0.093367302 -0.041721718    -6.619413    255.49183 
  242000   0.09838126 -0.080875075   -6.6194112    255.49183 
  243000  0.089575675 -0.018891249   -6.6194048    255.49183 
  244000  0.092315415 -0.015931492   -6.6194012    255.49183 
  245000   0.09554029 -0.037694499   -6.6193998    255.49183 
  246000  0.090219439 -0.037789284   -6.6194094    255.49183 
  247000  0.098047868  -0.07457528   -6.6194121    255.49183 
  248000  0.096560816 -0.051062799   -6.6194128    255.49183 
  249000  0.091007564 -0.014715829   -6.6194118    255.49183 
  250000  0.096698135 -0.064684044    -6.619415    255.49183 
  251000  0.088531987 -0.030818936   -6.6194083    255.49183 
  252000  0.091110339  -0.02272334   -6.6194127    255.49183 
  253000  0.093009832 -0.018759005   -6.6194138    255.49183 
  254000   0.09528426 -0.041357257   -6.6194162    255.49183 
  255000  0.096755214 -0.068125794   -6.6194121    255.49183 
  256000  0.091663817 -0.034268589   -6.6194075    255.49183 
  257000  0.098972026 -0.075530011   -6.6194134    255.49183 
  258000  0.085943981 -0.0055538466   -6.6194113    255.49183 
  259000  0.093259379 -0.042366867   -6.6194224    255.49183 
  260000   0.08708778 -0.0069918084   -6.6194282    255.49183 
  261000  0.092430768 -0.039511697   -6.6194348    255.49183 
  262000   0.08620954  0.012454049    -6.619433    255.49183 
  263000  0.091750335 -0.029608669   -6.6194399    255.49183 
  264000  0.087736608  0.030348805   -6.6194351    255.49183 
  265000  0.092302183 -0.038610061   -6.6194394    255.49183 
  266000   0.08942915 0.0067485009   -6.6194406    255.49183 
  267000  0.088399548 -0.0063523672   -6.6194375    255.49183 
  268000  0.089692044 -0.022339326    -6.619439    255.49183 
  269000  0.089476293  0.002524816   -6.6194338    255.49183 
  270000  0.090199466 -0.015750429    -6.619435    255.49183 
  271000  0.087243828 0.0075041214   -6.6194322    255.49183 
  272000  0.092224299 -0.037457109    -6.619439    255.49183 
  273000  0.089726076 -0.0080650364    -6.619441    255.49183 
  274000   0.09502715 -0.026392788   -6.6194418    255.49183 
  275000  0.089733263 -0.020574481   -6.6194432    255.49183 
  276000  0.088915535 -0.012573781   -6.6194406    255.49183 
  277000  0.094456731 -0.074912198   -6.6194405    255.49183 
  278000  0.092344227 -0.022947174   -6.6194433    255.49183 
  279000  0.093326277 -0.019331229   -6.6194411    255.49183 
  280000  0.097066834 -0.073617814    -6.619446    255.49183 
  281000   0.09198611  0.025753946    -6.619446    255.49183 
  282000  0.093469134 -0.048903592   -6.6194486    255.49183 
  283000  0.088743067 -0.012175931   -6.6194399    255.49183 
  284000  0.090037851 -0.043168473    -6.619442    255.49183 
  285000  0.090154627 -0.039440958    -6.619442    255.49183 
  286000  0.090142439 -0.012865632   -6.6194397    255.49183 
  287000  0.093424269 -0.027062239   -6.6194446    255.49183 
  288000  0.088320861 0.00092594586   -6.6194404    255.49183 
  289000  0.086742066  0.006125909   -6.6194372    255.49183 
  290000   0.09181411 -0.018005842   -6.6194359    255.49183 
  291000  0.087469492  0.011814706    -6.619437    255.49183 
  292000  0.083892117    0.0132802   -6.6194406    255.49183 
  293000  0.092865669 -0.034521502   -6.6194496    255.49183 
  294000  0.097026146 -0.072743356   -6.6194463    255.49183 
  295000  0.092882781 -0.014111766   -6.6194415    255.49183 
  296000  0.089432869 -0.016776488   -6.6194327    255.49183 
  297000  0.088920557   -0.0258775   -6.6194393    255.49183 
  298000  0.091252656  -0.02202172   -6.6194339    255.49183 
  299000  0.096911867  -0.08203453   -6.6194387    255.49183 
  300000  0.085273602 0.0048576236   -6.6194286    255.49183 
  301000  0.089212417 -0.013560052   -6.6194241    255.49183 
  302000  0.090024237 -0.0014560792   -6.6194257    255.49183 
  303000  0.096691403 -0.091688094   -6.6194315    255.49183 
  304000  0.099149805 -0.079783946   -6.6194308    255.49183 
  305000  0.093536076 -0.030005959   -6.6194284    255.49183 
  306000  0.084070495  0.035421129   -6.6194253    255.49183 
  307000  0.084041795  0.012598485   -6.6194252    255.49183 
  308000  0.089382194 -0.0091121207    -6.619426    255.49183 
  309000  0.087566269 -0.00098696907   -6.6194256    255.49183 
  310000  0.091989056  -0.02895002    -6.619422    255.49183 
  311000  0.093744053 -0.065744264   -6.6194168    255.49183 
  312000  0.096866127 -0.070056793   -6.6194224    255.49183 
  313000  0.097582327 -0.077858835     -6.61942    255.49183 
  314000  0.089137743 -0.0078092954   -6.6194176    255.49183 
  315000  0.092232762 -0.027512157   -6.6194183    255.49183 
  316000  0.093058448 -0.021941489   -6.6194221    255.49183 
  317000  0.092911746 -0.046339198   -6.6194158    255.49183 
  318000  0.096213336 -0.045772435   -6.6194227    255.49183 
  319000  0.095433264 -0.081572159   -6.6194222    255.49183 
  320000  0.088018446 -0.0063911132   -6.6194209    255.49183 
  321000  0.092344327 -0.040331166   -6.6194226    255.49183 
  322000  0.088132799  -0.01252205   -6.6194202    255.49183 
  323000  0.093169746 -0.046549711   -6.6194274    255.49183 
  324000  0.091357238 -0.052688508   -6.6194242    255.49183 
  325000  0.086438768  0.025205446   -6.6194159    255.49183 
  326000  0.095470293 -0.0052091281   -6.6194265    255.49183 
  327000  0.092708473 -0.048698799   -6.6194232    255.49183 
  328000  0.095625195 -0.054764673   -6.6194315    255.49183 
  329000  0.095489842 -0.064848631   -6.6194332    255.49183 
  330000  0.091292502 -0.032078693   -6.6194389    255.49183 
  331000  0.093475776  -0.05270884   -6.6194337    255.49183 
  332000   0.09432665 -0.053322569   -6.6194374    255.49183 
  333000    0.0922637   -0.0209438   -6.6194344    255.49183 
  334000  0.092492524 -0.043592138   -6.6194343    255.49183 
  335000  0.087808604 -0.0077148223   -6.6194302    255.49183 
  336000  0.087714166   0.01050045   -6.6194332    255.49183 
  337000   0.09566243 -0.044386055   -6.6194446    255.49183 
  338000  0.093869365 -0.046610986   -6.6194474    255.49183 
  339000  0.097805439 -0.072278283   -6.6194376    255.49183 
  340000  0.088571841 -0.0032209285   -6.6194313    255.49183 
  341000  0.084905513  0.043032987   -6.6194316    255.49183 
  342000  0.089069932 -0.021796113   -6.6194343    255.49183 
  343000  0.096467754  -0.02552925   -6.6194407    255.49183 
  344000  0.093591703 -0.044114306   -6.6194391    255.49183 
  345000  0.094628743 -0.037599368   -6.6194326    255.49183 
  346000  0.088879028 -0.009212788   -6.6194283    255.49183 
  347000  0.095233766 -0.061338735   -6.6194263    255.49183 
  348000  0.086838008  0.017091314   -6.6194247    255.49183 
  349000  0.096349469 -0.075629728   -6.6194262    255.49183 
  350000   0.09244959 -0.028312352   -6.6194229    255.49183 
  351000  0.091598585 -0.041611422   -6.6194231    255.49183 
  352000  0.096354483 -0.062532347   -6.6194276    255.49183 
  353000  0.094895118 -0.040356058   -6.6194286    255.49183 
  354000  0.091347625 -0.0044084416   -6.6194182    255.49183 
  355000  0.085749833 -0.014101941   -6.6194132    255.49183 
  356000  0.091201265 -0.010505883   -6.6194176    255.49183 
  357000  0.093511737 -0.051138304   -6.6194192    255.49183 
  358000  0.091540091 -0.047628028   -6.6194194    255.49183 
  359000  0.090058519 -0.049641372   -6.6194196    255.49183 
  360000  0.089138523 -0.029031132   -6.6194193    255.49183 
  361000  0.086130325  0.014990621    -6.619412    255.49183 
  362000  0.094531126 -0.043953633   -6.6194173    255.49183 
  363000  0.093048912 -0.033716933   -6.6194167    255.49183 
  364000  0.094236986 -0.049289925   -6.6194158    255.49183 
  365000   0.09365124 -0.032267703   -6.6194138    255.49183 
  366000   0.09835266 -0.087490439   -6.6194176    255.49183 
  367000  0.090966023 -0.0063415584   -6.6194191    255.49183 
  368000  0.093361015 -0.058315083   -6.6194139    255.49183 
  369000  0.086645932 0.00032367675   -6.6194113    255.49183 
  370000   0.08986913 -0.014505527   -6.6194114    255.49183 
  371000  0.088459488 -0.0042124807   -6.6194084    255.49183 
  372000    0.0917381 -0.019332444   -6.6194103    255.49183 
  373000  0.093460534 -0.058814127   -6.6194084    255.49183 
  374000  0.087112186  0.010498941   -6.6194008    255.49183 
  375000  0.087327073  0.002023274   -6.6194042    255.49183 
  376000  0.093220001 -0.037842828   -6.6194054    255.49183 
  377000  0.084524195 0.0041030263   -6.6194082    255.49183 
  378000  0.090153512 -0.024900309   -6.6194074    255.49183 
  379000  0.089270422 -0.0063995873   -6.6194132    255.49183 
  380000  0.094453269 -0.041246978   -6.6194134    255.49183 
  381000  0.092126226 -0.040743783   -6.6194087    255.49183 
  382000  0.090366562 -0.008462785    -6.619411    255.49183 
  383000  0.094657064 -0.043529279   -6.6194088    255.49183 
  384000  0.090793366 -0.019123576   -6.6193942    255.49183 
  385000  0.087335375  0.010172117   -6.6193926    255.49183 
  386000  0.089162747 -0.021199586   -6.6193939    255.49183 
  387000  0.091303757  -0.03544674   -6.6193974    255.49183 
  388000  0.090196035 -0.035087773   -6.6193971    255.49183 
  389000  0.096470839 -0.071726653   -6.6194033    255.49183 
  390000  0.089943555 -0.023261523   -6.6194018    255.49183 
  391000  0.092453644 -0.036651672   -6.6194043    255.49183 
  392000  0.092195221 -0.020867535    -6.619409    255.49183 
  393000  0.088621882 -0.012036813   -6.6194109    255.49183 
  394000   0.09045195 -0.039511195   -6.6194081    255.49183 
  395000  0.090536122 -0.017797232   -6.6194002    255.49183 
  396000  0.094627832 -0.037308186   -6.6194091    255.49183 
  397000  0.095374828 -0.047155793    -6.619398    255.49183 
  398000  0.094089393 -0.017860034   -6.6193999    255.49183 
  399000  0.093952782 -0.054876002    -6.619398    255.49183 
  400000  0.090967637 -0.036456823   -6.6193916    255.49183 
  401000  0.094218106 -0.042756572   -6.6193898    255.49183 
  402000  0.090738307 -0.036318554   -6.6193931    255.49183 
  403000  0.086354938  0.014348886   -6.6193922    255.49183 
  404000  0.093068683 -0.026398865   -6.6193885    255.49183 
  405000  0.090883728  -0.03878864   -6.6193997    255.49183 
  406000  0.089979318 -0.028705362   -6.6193957    255.49183 
  407000  0.097067318 -0.071678182   -6.6193929    255.49183 
  408000   0.10037126 -0.079637431   -6.6193954    255.49183 
  409000  0.095406521 -0.043456939   -6.6193892    255.49183 
  410000  0.093050327   -0.0474414   -6.6193845    255.49183 
  411000  0.098292711 -0.065252578   -6.6193879    255.49183 
  412000  0.089288686 -0.0074711979   -6.6193905    255.49183 
  413000  0.092468161 -0.033821303   -6.6193899    255.49183 
  414000  0.091610127 -0.045141141   -6.6193862    255.49183 
  415000  0.095891657 -0.033480735   -6.6193868    255.49183 
  416000  0.091827081 -0.028654233   -6.6193791    255.49183 
  417000  0.092881494 -0.044101888   -6.6193739    255.49183 
  418000  0.095485224 -0.044620205    -6.619372    255.49183 
  419000  0.088825704 0.0098756075   -6.6193709    255.49183 
  420000  0.088033268 -0.010980202   -6.6193756    255.49183 
  421000  0.091845264 -0.038459721   -6.6193831    255.49183 
  422000  0.092562458 -0.032885212   -6.6193873    255.49183 
  423000  0.095769009  -0.05566077   -6.6193818    255.49183 
  424000  0.091623878 -0.024822674   -6.6193753    255.49183 
  425000  0.089245635 0.0011377937   -6.6193775    255.49183 
  426000  0.092357434 -0.025263947    -6.619375    255.49183 
  427000  0.092489967 -0.039659768   -6.6193738    255.49183 
  428000  0.089623085 -0.025470733   -6.6193674    255.49183 
  429000  0.088673231  -0.01433054   -6.6193635    255.49183 
  430000  0.093086548  -0.04331769   -6.6193711    255.49183 
  431000  0.092986834  -0.01890644   -6.6193754    255.49183 
  432000  0.091479262 -0.016770529   -6.6193698    255.49183 
  433000  0.092305036 -0.026090819     -6.61937    255.49183 
  434000  0.086391786 0.0057258675   -6.6193573    255.49183 
  435000  0.099141172    -0.103611   -6.6193669    255.49183 
  436000   0.09434409 -0.048158824   -6.6193662    255.49183 
  437000  0.094056208 -0.0082456401   -6.6193667    255.49183 
  438000  0.095095854 -0.057423832   -6.6193694    255.49183 
  439000  0.090087024  -0.02066286   -6.6193689    255.49183 
  440000  0.092862523 -0.029031716   -6.6193734    255.49183 
  441000  0.091649665 -0.038125351   -6.6193722    255.49183 
  442000  0.091086624 -0.042373351   -6.6193689    255.49183 
  443000  0.093743488 -0.043135896   -6.6193669    255.49183 
  444000  0.092670151 -0.050752108   -6.6193747    255.49183 
  445000  0.097081818  -0.09824739   -6.6193775    255.49183 
  446000  0.092700269 -0.062414344   -6.6193732    255.49183 
  447000  0.096683785  -0.06108836   -6.6193698    255.49183 
  448000   0.09097906 -0.019129603   -6.6193658    255.49183 
  449000  0.089950834  -0.02051847   -6.6193645    255.49183 
  450000  0.093180098 -0.043082667   -6.6193579    255.49183 
  451000  0.096627016 -0.084808556   -6.6193599    255.49183 
  452000  0.094370895 -0.060564944   -6.6193611    255.49183 
  453000  0.096633266  -0.06485124   -6.6193629    255.49183 
  454000  0.094191212 -0.048096021   -6.6193613    255.49183 
  455000  0.093214698 -0.079765974   -6.6193599    255.49183 
  456000  0.095421669   -0.0291994   -6.6193623    255.49183 
  457000  0.095640354 -0.047386114   -6.6193702    255.49183 
  458000  0.090670524  -0.05077329   -6.6193646    255.49183 
  459000  0.090574273 -0.036995482   -6.6193599    255.49183 
  460000  0.084705234  0.021851673   -6.6193534    255.49183 
  461000  0.093741852  -0.04849587   -6.6193586    255.49183 
  462000  0.093992642 -0.047830794    -6.619354    255.49183 
  463000  0.090982829 -0.035896792   -6.6193515    255.49183 
  464000  0.091918073 -0.039187853   -6.6193584    255.49183 
  465000  0.091954895  0.012715265    -6.619358    255.49183 
  466000  0.087600437 -0.010936827   -6.6193645    255.49183 
  467000  0.092579675 -0.043208595   -6.6193695    255.49183 
  468000  0.091796698  -0.04252413    -6.619372    255.49183 
  469000  0.094596165  -0.06866254   -6.6193626    255.49183 
  470000  0.092004076 -0.017009989   -6.6193718    255.49183 
  471000  0.088412085 -0.016749962   -6.6193803    255.49183 
  472000  0.096986863 -0.091314686   -6.6193803    255.49183 
  473000  0.093334191 -0.037478317   -6.6193763    255.49183 
  474000  0.091997586  -0.05737572   -6.6193717    255.49183 
  475000  0.092316488 -0.053852963   -6.6193764    255.49183 
  476000  0.095550049 -0.033953446   -6.6193708    255.49183 
  477000  0.089268966 -0.024645336   -6.6193645    255.49183 
  478000  0.090634491 -0.017255164   -6.6193667    255.49183 
  479000  0.095546045 -0.051335675   -6.6193647    255.49183 
  480000   0.09354182 -0.034327292   -6.6193616    255.49183 
  481000  0.093273902  -0.07132164   -6.6193624    255.49183 
  482000  0.088957779 0.0074028609   -6.6193534    255.49183 
  483000  0.090754106 -0.019651756   -6.6193524    255.49183 
  484000  0.095412753 -0.066470515   -6.6193516    255.49183 
  485000  0.089471056   0.03518955   -6.6193473    255.49183 
  486000   0.09976449 -0.082132946   -6.6193523    255.49183 
  487000  0.094097872 -0.053258887   -6.6193516    255.49183 
  488000  0.091035212 -0.0075164267   -6.6193589    255.49183 
  489000  0.088859998 -0.0035329282   -6.6193626    255.49183 
  490000  0.089663536 0.0016251774   -6.6193656    255.49183 
  491000  0.090458978 -0.014223905   -6.6193695    255.49183 
  492000  0.099377744  -0.10286959   -6.6193773    255.49183 
  493000  0.094096252 -0.043210708   -6.6193761    255.49183 
  494000  0.097124955 -0.074659144   -6.6193821    255.49183 
  495000  0.090959335 -0.034553953    -6.619373    255.49183 
  496000  0.096506947 -0.075093871   -6.6193821    255.49183 
  497000  0.091774475 -0.042858257   -6.6193741    255.49183 
  498000  0.092671837 -0.0087353645   -6.6193717    255.49183 
  499000  0.091885315  -0.04584386   -6.6193754    255.49183 
  500000  0.095368495 -0.043825794   -6.6193753    255.49183 
  501000  0.096603609  -0.06764967   -6.6193781    255.49183 
  502000  0.093093452 -0.033201041   -6.6193734    255.49183 
  503000  0.096560549 -0.055090519   -6.6193762    255.49183 
  504000  0.094989411 -0.067281669   -6.6193798    255.49183 
  505000   0.09339233 -0.019931195   -6.6193754    255.49183 
  506000  0.091584439 -0.042536343   -6.6193718    255.49183 
  507000  0.096350039 -0.080547465   -6.6193733    255.49183 
  508000  0.089024434  0.020686149   -6.6193675    255.49183 
  509000  0.088709339 -0.017799701   -6.6193582    255.49183 
  510000  0.086901443 -0.012164675   -6.6193649    255.49183 
  511000  0.082665073    0.0287692   -6.6193612    255.49183 
  512000  0.090706842 -0.021842105   -6.6193637    255.49183 
  513000  0.096406271 -0.061275728   -6.6193733    255.49183 
  514000  0.094381326 -0.037971368   -6.6193793    255.49183 
  515000  0.089773267 -0.0086171464     -6.61937    255.49183 
  516000  0.088904379 0.0016248822   -6.6193709    255.49183 
  517000  0.097947286 -0.085289864   -6.6193838    255.49183 
  518000  0.089536628 -0.016036046   -6.6193748    255.49183 
  519000  0.090025591 -0.017977568   -6.6193807    255.49183 
  520000  0.089685804 0.0015829073   -6.6193815    255.49183 
  521000  0.095892112 -0.070712847   -6.6193856    255.49183 
  522000   0.09183078  -0.03008992   -6.6193879    255.49183 
  523000  0.091222201 0.00022796875    -6.619384    255.49183 
  524000  0.085975552 -0.014854361   -6.6193813    255.49183 
  525000  0.084793313 0.0081318472   -6.6193817    255.49183 
  526000  0.094953926 -0.059349738   -6.6193862    255.49183 
  527000  0.092502226 -0.061133985   -6.6193898    255.49183 
  528000  0.097330063 -0.063078449   -6.6193906    255.49183 
  529000  0.091159108 -0.041639346   -6.6193798    255.49183 
  530000   0.09844608 -0.095886846   -6.6193938    255.49183 
  531000  0.091722127 -0.034548461   -6.6193878    255.49183 
  532000  0.091047551 -0.012477456   -6.6193924    255.49183 
  533000  0.094067043 -0.061732806   -6.6193934    255.49183 
  534000  0.087692703 -0.0052446342   -6.6193917    255.49183 
  535000  0.089738053 -0.023973283   -6.6193893    255.49183 
  536000  0.095327392 -0.053190247   -6.6193973    255.49183 
  537000  0.094462713  0.010589803   -6.6193962    255.49183 
  538000  0.094138019 -0.043276622   -6.6193936    255.49183 
  539000  0.089202844 -0.017248504   -6.6193883    255.49183 
  540000  0.085548947  0.010977637   -6.6193911    255.49183 
  541000  0.088199148  0.025009725   -6.6193927    255.49183 
  542000  0.099008695  -0.10124806   -6.6193925    255.49183 
  543000  0.094880581 -0.046870763   -6.6193864    255.49183 
  544000  0.095105136 -0.060568239   -6.6193878    255.49183 
  545000  0.090915689 -0.014891382   -6.6193836    255.49183 
  546000  0.087350822 0.0066421087   -6.6193867    255.49183 
  547000  0.092010675 -0.041265194   -6.6193902    255.49183 
  548000  0.097494608 -0.080993686   -6.6194022    255.49183 
  549000  0.092530134  -0.02412862   -6.6194016    255.49183 
  550000  0.091771865 -0.047042181   -6.6194029    255.49183 
  551000  0.097944828 -0.068721336   -6.6194092    255.49183 
  552000  0.092311252 -0.041326598   -6.6194121    255.49183 
  553000  0.092813151 -0.012200424   -6.6194115    255.49183 
  554000  0.088821996  -0.02700407   -6.6194029    255.49183 
  555000  0.089666968  -0.02667056   -6.6193999    255.49183 
  556000  0.091397142 -0.036213946   -6.6194019    255.49183 
  557000  0.086286006  0.014525336   -6.6193941    255.49183 
  558000  0.090814274 -0.030177471   -6.6194008    255.49183 
  559000  0.091813628 -0.019497483   -6.6193932    255.49183 
  560000  0.095925259 -0.039470919   -6.6193969    255.49183 
  561000   0.08988575 -0.029270472   -6.6193927    255.49183 
  562000  0.091445768 -0.023681022   -6.6193945    255.49183 
  563000  0.093426502 -0.065001082   -6.6193973    255.49183 
  564000  0.089980068 -0.019524983   -6.6194002    255.49183 
  565000  0.093587195 -0.046396052      -6.6194    255.49183 
  566000  0.094064391 -0.068718359   -6.6194061    255.49183 
  567000  0.092941038 -0.037129054   -6.6194007    255.49183 
  568000   0.09480993 -0.079260475   -6.6194019    255.49183 
  569000  0.098664264 -0.079198379   -6.6194006    255.49183 
  570000  0.090492364 -0.010309296   -6.6193922    255.49183 
  571000  0.095503598 -0.056358982     -6.61939    255.49183 
  572000  0.094135717 -0.0025845523   -6.6193881    255.49183 
  573000  0.092801735 -0.041954696   -6.6193911    255.49183 
  574000  0.091315614 -0.0092641047   -6.6193867    255.49183 
  575000  0.092007025 -0.032271758   -6.6193916    255.49183 
  576000  0.095127269 -0.044923029   -6.6193903    255.49183 
  577000  0.089989851 -0.035303787   -6.6193933    255.49183 
  578000  0.090825832  0.000127431   -6.6193924    255.49183 
  579000  0.089553112 -0.012017151    -6.619398    255.49183 
  580000  0.097021697 -0.065419366   -6.6194032    255.49183 
  581000  0.095804806   -0.0777755   -6.6194031    255.49183 
  582000  0.088581264 -0.0096788711    -6.619398    255.49183 
  583000  0.094854442 -0.056998365   -6.6193969    255.49183 
  584000  0.099777374 -0.091221923    -6.619403    255.49183 
  585000  0.088114801 -0.021698818   -6.6193914    255.49183 
  586000  0.093605967 -0.039490391   -6.6193906    255.49183 
  587000  0.094643518 -0.057554864   -6.6193894    255.49183 
  588000  0.096016375 -0.077910351   -6.6193831    255.49183 
  589000  0.095349456 -0.050857444   -6.6193851    255.49183 
  590000  0.094717253 -0.045856151   -6.6193851    255.49183 
  591000   0.08732338 -0.019267007   -6.6193705    255.49183 
  592000  0.095661113 -0.038412272   -6.6193732    255.49183 
  593000   0.09276668 -0.031519803   -6.6193759    255.49183 
  594000  0.091703366 -0.031075978   -6.6193815    255.49183 
  595000  0.093143573 -0.037737975   -6.6193839    255.49183 
  596000  0.089682776 -0.012201977   -6.6193876    255.49183 
  597000  0.094140299 -0.046766617   -6.6193838    255.49183 
  598000  0.090820225 -0.016492118   -6.6193814    255.49183 
  599000  0.094915346 -0.040270077   -6.6193843    255.49183 
  600000  0.097658598 -0.075478649   -6.6193881    255.49183 
Loop time of 133.243 on 1 procs for 500000 steps with 256 atoms

Pair  time (%) = 119.372 (89.5899)
Neigh time (%) = 3.28282 (2.46379)
Comm  time (%) = 5.99919 (4.50245)
Outpt time (%) = 0.02053 (0.015408)
Other time (%) = 4.56819 (3.42847)

Nlocal:    256 ave 256 max 256 min
Histogram: 1 0 0 0 0 0 0 0 0 0
Nghost:    1451 ave 1451 max 1451 min
Histogram: 1 0 0 0 0 0 0 0 0 0
Neighs:    11369 ave 11369 max 11369 min
Histogram: 1 0 0 0 0 0 0 0 0 0

Total # of neighbors = 11369
Ave neighs/atom = 44.4102
Neighbor list builds = 5331
Dangerous builds = 0
#	run             10000
	unfix 		1


