ITEM: TIMESTEP
0
ITEM: NUMBER OF ATOMS
256
ITEM: BOX BOUNDS
0 6.3454
0 6.3454
0 6.3454
ITEM: ATOMS x y z 
0.77483 0.74208 4.7475 
2.7231 2.1085 1.1095 
1.593 0.20988 1.413 
5.1521 2.0839 2.0132 
1.3956 3.9891 5.2967 
2.921 5.3218 4.8098 
1.8846 4.1394 2.4979 
4.0033 3.4281 4.8861 
5.8001 4.8841 3.2455 
0.14845 1.2569 1.7074 
0.13298 0.073378 4.0768 
1.774 0.40157 5.8862 
5.33 6.1611 5.7913 
0.0088191 3.8887 3.6108 
2.5765 3.9136 1.6255 
0.2174 2.2836 3.5426 
3.6457 3.6557 3.8478 
5.768 2.0326 4.3487 
3.5012 5.6398 2.7396 
1.7601 2.246 5.4851 
1.4921 3.7301 1.4968 
3.1294 4.5775 4.0298 
5.5442 3.0846 2.0974 
1.1274 2.9445 0.69944 
4.2293 4.3663 4.3456 
4.319 3.6356 1.1482 
5.072 2.8385 1.1523 
3.1968 3.319 0.91775 
0.44855 6.2467 2.2616 
3.9453 2.6115 1.0924 
3.4298 6.2553 4.6975 
1.8657 4.8404 3.7443 
0.064433 4.3573 5.362 
6.0384 3.7811 0.33804 
1.9876 5.6735 4.3837 
1.7281 3.235 3.1868 
3.1832 2.6974 1.8611 
2.9686 1.9572 3.7994 
6.0581 1.0276 0.74788 
1.4485 1.7086 4.6307 
4.3749 2.3828 4.7077 
4.9022 5.0977 3.8593 
2.511 5.9528 1.3452 
4.6633 0.84877 0.71006 
3.0847 0.62411 1.1385 
1.7758 2.8896 2.1081 
1.041 1.8814 1.9425 
1.9104 5.2719 5.3766 
2.1696 3.0421 1.0398 
3.3874 6.2533 1.8605 
4.0974 1.607 3.7522 
4.2147 1.6238 0.016899 
1.2937 5.8094 6.0599 
2.2402 0.3294 0.55053 
2.1635 2.194 0.15561 
0.066546 0.11046 0.31839 
5.7732 1.2607 2.5022 
5.6097 3.9107 2.807 
0.42742 1.767 4.493 
2.6665 3.3473 2.5471 
0.29909 4.4252 2.7579 
4.4094 6.0263 5.2021 
2.5588 0.19526 4.0545 
4.645 5.4877 0.67624 
1.314 2.2104 3.7139 
3.3438 5.9711 5.7392 
3.7056 0.7168 0.24428 
2.5206 5.8765 2.4273 
3.8965 2.489 5.6606 
3.8444 4.7184 2.1997 
5.5389 5.8423 4.6558 
5.0005 3.5765 0.32771 
0.60925 1.101 0.1756 
5.6115 4.636 2.008 
3.2035 6.1312 0.47165 
5.3454 4.3061 5.9429 
4.6845 1.1799 2.3811 
5.3304 1.12 1.5186 
0.4456 1.5205 2.7637 
3.8641 2.6174 3.7738 
1.8945 0.78298 4.8906 
0.90247 4.5462 1.8286 
4.9209 3.0927 2.9947 
2.7591 5.1616 0.62998 
0.68233 3.9346 6.2266 
1.2302 1.3065 5.619 
4.1056 0.71585 4.5064 
1.6174 3.8294 0.39026 
5.8202 3.3925 5.6666 
2.1637 1.1715 1.2447 
3.2792 0.92549 3.8179 
2.895 3.0018 3.516 
5.3138 2.9061 4.799 
5.0475 3.9721 4.9187 
0.18612 1.3255 5.4774 
3.7284 5.2518 0.12768 
2.1634 3.1879 5.1978 
0.23398 5.7308 5.8577 
1.8704 4.8409 0.027322 
5.315 4.0988 3.838 
0.48917 2.0801 0.9942 
2.3455 5.8685 6.2138 
4.4343 4.0171 3.2134 
0.99312 5.7144 3.9275 
2.6365 1.3307 2.9134 
1.1295 4.1518 3.4116 
5.5869 5.8914 3.5774 
1.116 5.1537 2.9249 
2.771 3.6042 4.4385 
3.6927 6.2284 3.6567 
3.9147 5.3845 4.338 
4.6502 3.3234 4.053 
2.3729 4.0854 5.7621 
5.1082 0.47515 4.9488 
2.5986 4.1159 0.53706 
1.2073 6.0961 5.0064 
2.1707 2.6571 4.2077 
4.3762 1.454 5.3035 
3.3618 1.4814 5.7509 
3.3367 4.1336 2.9297 
2.7893 1.3294 0.34392 
0.70294 0.35721 5.7781 
5.277 5.5328 1.5053 
5.5753 5.7203 2.5128 
3.9293 4.9326 3.377 
0.13348 5.2492 2.1367 
1.1613 0.23463 0.43867 
2.5013 1.7946 4.7624 
3.6 3.6942 1.9404 
5.4136 0.5336 3.8726 
1.7041 3.6821 4.2229 
4.7151 3.9139 2.1677 
0.70558 2.2777 5.4355 
5.177 0.3359 2.8048 
6.0464 0.98318 4.5787 
4.5905 4.6828 1.4169 
4.4169 2.9012 2.0177 
2.4796 3.1846 0.0015584 
3.2252 2.6757 4.6642 
4.3646 4.4274 0.36063 
6.2427 5.8073 1.2513 
4.723 3.269 5.6891 
3.8072 3.1633 2.8576 
3.7069 1.218 2.8075 
0.012158 3.7992 1.9237 
1.9461 0.52076 3.0673 
4.6492 6.1592 4.1593 
5.8947 0.29861 1.9065 
4.8456 0.19583 1.774 
0.9992 4.6635 0.66762 
0.39209 4.8498 3.849 
0.49324 0.32034 1.2846 
2.234 4.4882 4.7237 
1.2254 2.8364 4.6875 
4.4079 2.1551 2.8679 
6.0098 3.7144 4.6112 
1.9032 5.8342 3.3243 
5.4389 3.8396 1.3069 
4.2823 6.1882 6.2848 
2.4277 3.979 3.4656 
3.2125 3.3638 5.5883 
0.61288 5.5981 0.50789 
0.15678 2.7951 4.5085 
5.6203 2.7061 0.16612 
3.6461 1.5697 0.93797 
5.1069 1.4112 3.3211 
3.3179 2.378 0.23049 
2.9603 0.82778 4.9323 
1.0803 2.0801 0.06695 
6.1411 1.3108 3.5837 
4.5712 5.8296 3.127 
4.6818 1.843 1.0559 
2.5808 4.9101 2.8916 
4.7573 5.2214 5.9999 
5.3846 4.6628 0.63367 
0.69007 3.9622 4.4601 
4.0992 0.0015787 1.0207 
1.8051 5.1479 2.0979 
2.8464 5.0298 5.8386 
0.31555 2.9129 6.3311 
1.6266 2.0961 1.0818 
4.3539 5.6436 2.0464 
0.50268 3.3485 5.3429 
3.4007 4.2442 6.223 
5.8621 0.74773 6.0631 
1.6974 1.216 0.26301 
4.4025 0.63746 3.4813 
3.0423 0.31752 2.9334 
3.9992 0.85795 1.651 
0.73748 2.9156 1.7065 
6.3021 1.8986 0.03 
1.6954 5.6561 0.72423 
2.8398 0.50353 5.9979 
1.9365 4.6769 1.1652 
0.93154 4.8738 5.7403 
4.7933 0.74943 5.9893 
6.0129 2.3539 5.4176 
5.7238 5.6028 0.27093 
1.4903 6.1314 2.382 
4.9359 1.3886 4.3857 
1.0867 0.79502 2.196 
1.5261 1.5117 2.8898 
4.5733 2.572 0.24006 
5.2818 1.6087 0.15225 
0.91029 1.1696 3.7283 
0.95343 3.6063 2.4886 
3.8406 0.54312 5.5277 
2.1421 1.8841 2.0578 
3.5623 1.6649 4.6711 
3.0763 1.3988 1.9055 
0.27031 5.5019 4.7833 
4.9218 2.3355 3.7944 
6.1631 2.9973 1.1195 
4.2862 4.2237 5.6284 
3.5065 4.3679 1.0629 
2.2159 2.3148 3.0567 
1.0891 1.1658 1.1389 
2.299 1.3683 5.7213 
5.765 2.0069 1.0753 
1.4972 0.2941 4.0545 
2.8458 4.9764 1.798 
3.2963 2.2125 2.8032 
3.8494 5.1374 5.3835 
0.95641 2.5426 2.7631 
3.293 4.2983 5.0757 
4.0028 1.9141 1.9226 
2.0906 1.2607 3.8703 
0.97478 5.6149 1.5306 
2.8009 2.3796 5.6256 
5.8273 4.7938 4.4688 
6.3396 4.7078 1.1654 
4.8354 4.8794 2.7053 
2.429 6.2326 5.1791 
3.9152 3.3665 0.10723 
6.1994 0.14131 5.1861 
0.90059 0.21009 3.1881 
5.6532 2.272 2.9585 
5.4301 0.11472 0.85614 
4.0888 0.24321 2.5588 
5.7305 3.0386 3.7577 
4.9732 2.2656 5.6606 
6.29 2.2633 2.0579 
0.016184 4.7751 0.042929 
4.8351 5.0425 4.9369 
0.544 3.7767 0.99067 
1.197 4.903 4.6428 
6.2013 0.3837 3.0356 
3.6713 5.3985 1.2305 
5.4631 1.4132 5.3465 
2.8796 5.557 3.7098 
0.028796 3.1153 2.8225 
1.3733 3.0957 5.9784 
5.7459 5.1973 5.5071 
0.79526 3.168 3.7027 
0.20294 5.6844 3.1566 
2.4066 0.5419 2.0712 
ITEM: TIMESTEP
4
ITEM: NUMBER OF ATOMS
256
ITEM: BOX BOUNDS
0 6.3454
0 6.3454
0 6.3454
ITEM: ATOMS x y z 
0.774823 0.74208 4.74752 
2.72308 2.10846 1.10953 
1.59296 0.209877 1.41303 
5.15208 2.08388 2.01318 
1.39559 3.9891 5.29674 
2.92097 5.32176 4.80979 
1.8846 4.13941 2.49795 
4.00326 3.4281 4.8861 
5.8001 4.88413 3.24549 
0.148464 1.25694 1.70742 
0.132962 0.0733566 4.0768 
1.77399 0.401576 5.88617 
5.33003 6.16111 5.79128 
0.00881643 3.88866 3.61076 
2.57653 3.91363 1.62547 
0.217403 2.28363 3.54264 
3.64569 3.65571 3.84777 
5.76801 2.03257 4.34872 
3.50116 5.6398 2.73956 
1.76008 2.24601 5.48512 
1.4921 3.73008 1.4968 
3.12939 4.57751 4.02979 
5.54418 3.08463 2.09739 
1.12742 2.94449 0.699458 
4.22931 4.36634 4.3456 
4.31904 3.63557 1.14817 
5.07203 2.83853 1.15233 
3.19677 3.31901 0.917759 
0.448541 6.24669 2.26161 
3.94526 2.61147 1.0924 
3.42979 6.25528 4.69752 
1.86572 4.84038 3.7443 
0.0644265 4.35729 5.36204 
6.03844 3.78112 0.338038 
1.98765 5.67352 4.38365 
1.72808 3.23498 3.18683 
3.18321 2.69741 1.86113 
2.96863 1.95724 3.79943 
6.05808 1.02761 0.747888 
1.44854 1.70855 4.63071 
4.37491 2.38279 4.70764 
4.9022 5.09768 3.85926 
2.511 5.95282 1.34523 
4.66328 0.84877 0.710045 
3.08466 0.624101 1.13853 
1.7758 2.88962 2.1081 
1.04094 1.88144 1.94246 
1.91036 5.27192 5.37661 
2.16958 3.04207 1.03978 
3.38739 6.25331 1.8605 
4.09738 1.607 3.75217 
4.21469 1.62375 0.0169021 
1.29368 5.8094 6.05993 
2.24021 0.329412 0.550518 
2.16351 2.19398 0.155616 
0.0665252 0.110451 0.318398 
5.77316 1.26071 2.50224 
5.6097 3.91067 2.80699 
0.427416 1.76702 4.493 
2.66648 3.34725 2.54712 
0.29908 4.42517 2.75793 
4.40937 6.02624 5.20205 
2.55876 0.19526 4.05452 
4.64502 5.48772 0.676226 
1.31405 2.21042 3.71389 
3.34378 5.9711 5.73923 
3.70564 0.716803 0.244269 
2.52065 5.87648 2.42731 
3.89647 2.48901 5.66063 
3.84435 4.71843 2.19969 
5.53886 5.84231 4.65573 
5.00048 3.57653 0.327719 
0.60926 1.10097 0.175607 
5.61147 4.63597 2.00799 
3.20352 6.13124 0.471629 
5.34536 4.30614 5.9429 
4.68454 1.17988 2.38111 
5.33039 1.11998 1.51858 
0.4456 1.52049 2.76366 
3.86409 2.61742 3.77382 
1.89449 0.782987 4.89061 
0.902461 4.5462 1.82861 
4.92094 3.09269 2.99474 
2.75909 5.16157 0.629944 
0.682321 3.93458 6.22661 
1.23018 1.30649 5.61896 
4.10564 0.715867 4.50642 
1.61745 3.8294 0.390259 
5.8202 3.39246 5.66659 
2.16374 1.17148 1.24464 
3.27916 0.925477 3.81792 
2.895 3.00175 3.51596 
5.31383 2.90611 4.79902 
5.04751 3.97213 4.91871 
0.18611 1.32552 5.47744 
3.72839 5.25183 0.127681 
2.16337 3.1879 5.19785 
0.233968 5.73082 5.85768 
1.87039 4.84084 0.0273327 
5.31496 4.09884 3.83799 
0.489175 2.08009 0.994209 
2.34553 5.86853 6.21382 
4.43434 4.0171 3.21338 
0.993118 5.71439 3.92751 
2.63652 1.33073 2.91338 
1.12953 4.15179 3.41163 
5.58693 5.89137 3.57741 
1.11602 5.15369 2.92489 
2.771 3.60423 4.43849 
3.69266 6.22839 3.65671 
3.91468 5.38453 4.33803 
4.65018 3.32338 4.053 
2.37287 4.08544 5.7621 
5.10822 0.475131 4.94883 
2.59864 4.11594 0.537074 
1.20728 6.09611 5.00638 
2.17064 2.65706 4.2077 
4.37624 1.45397 5.30351 
3.36182 1.48142 5.75089 
3.33674 4.13357 2.92975 
2.7893 1.3294 0.343913 
0.702931 0.357222 5.7781 
5.27697 5.53277 1.50526 
5.57532 5.7203 2.51282 
3.92931 4.93263 3.37701 
0.133482 5.24925 2.13673 
1.16132 0.234639 0.438663 
2.50126 1.79463 4.76243 
3.59999 3.6942 1.94035 
5.41356 0.533594 3.87262 
1.7041 3.6821 4.22287 
4.71509 3.91389 2.16774 
0.705578 2.27769 5.43547 
5.17701 0.335891 2.80474 
6.04641 0.983192 4.57873 
4.59053 4.68281 1.41692 
4.41693 2.90118 2.01768 
2.47963 3.18461 0.00155662 
3.22518 2.67571 4.66421 
4.36456 4.42737 0.36061 
6.24268 5.8073 1.2513 
4.723 3.26898 5.68909 
3.80717 3.1633 2.85763 
3.70693 1.21801 2.8075 
0.0121677 3.7992 1.92372 
1.94605 0.52076 3.06734 
4.64924 6.15919 4.15932 
5.8947 0.298599 1.9065 
4.84561 0.195838 1.77403 
0.999175 4.66352 0.66762 
0.392083 4.84982 3.84899 
0.493254 0.320348 1.28463 
2.23406 4.48821 4.7237 
1.22542 2.83641 4.68746 
4.4079 2.1551 2.86792 
6.00983 3.71438 4.61117 
1.9032 5.83424 3.32426 
5.4389 3.83961 1.30691 
4.28228 6.18819 6.28484 
2.42771 3.97905 3.46559 
3.21249 3.36382 5.58828 
0.612895 5.59813 0.507874 
0.156791 2.79509 4.50851 
5.62034 2.70614 0.166129 
3.64606 1.56975 0.93798 
5.10689 1.4112 3.32105 
3.31793 2.378 0.230497 
2.96027 0.827769 4.93229 
1.08028 2.08009 0.0669769 
6.14113 1.31078 3.58371 
4.57122 5.82957 3.12703 
4.68182 1.84302 1.05588 
2.58077 4.91007 2.89157 
4.75734 5.22136 5.99991 
5.38463 4.6628 0.633657 
0.690054 3.96217 4.46008 
4.0992 0.00158398 1.02071 
1.80506 5.14791 2.09793 
2.84642 5.02978 5.83858 
0.315553 2.91295 6.33109 
1.62667 2.0961 1.0818 
4.35387 5.64362 2.0464 
0.502686 3.34847 5.34293 
3.40069 4.24422 6.22298 
5.86212 0.747735 6.0631 
1.69737 1.21598 0.263002 
4.40249 0.637444 3.4813 
3.04231 0.317513 2.93338 
3.99923 0.857943 1.65103 
0.737481 2.91555 1.70645 
6.30213 1.89859 0.0300107 
1.69538 5.65608 0.724228 
2.8398 0.503526 5.9979 
1.93655 4.6769 1.16522 
0.931535 4.8738 5.74025 
4.79328 0.749443 5.98931 
6.01286 2.35388 5.41755 
5.72383 5.60283 0.27094 
1.49033 6.1314 2.38202 
4.93588 1.38863 4.38565 
1.08672 0.79502 2.19603 
1.52614 1.51171 2.88984 
4.57328 2.57198 0.240064 
5.28181 1.60868 0.152276 
0.910266 1.16963 3.72831 
0.953424 3.60634 2.48864 
3.84058 0.54309 5.52769 
2.14215 1.88411 2.05777 
3.56227 1.66486 4.67108 
3.07632 1.39879 1.90549 
0.270326 5.50193 4.78333 
4.92181 2.33549 3.79442 
6.16307 2.99731 1.1195 
4.28617 4.2237 5.62842 
3.50645 4.36791 1.06288 
2.21584 2.31476 3.0567 
1.08908 1.16579 1.1389 
2.29904 1.36827 5.72132 
5.765 2.00686 1.07528 
1.49725 0.294102 4.05447 
2.84583 4.97639 1.79802 
3.29631 2.21247 2.80315 
3.84938 5.13739 5.38348 
0.956422 2.54264 2.76307 
3.29298 4.29829 5.0757 
4.00277 1.91409 1.92257 
2.09056 1.26067 3.87032 
0.974787 5.61492 1.53062 
2.80086 2.3796 5.62556 
5.82726 4.7938 4.4688 
6.33962 4.70781 1.16541 
4.83544 4.87936 2.70532 
2.42903 6.23263 5.17908 
3.91525 3.36648 0.107235 
6.19943 0.141323 5.1861 
0.900586 0.210093 3.18807 
5.65322 2.27202 2.95849 
5.43013 0.114736 0.856126 
4.08879 0.243206 2.55878 
5.73051 3.03859 3.75767 
4.97323 2.26559 5.66058 
6.29004 2.26324 2.05791 
0.016172 4.77508 0.042924 
4.83512 5.04251 4.93693 
0.543994 3.77671 0.990674 
1.19703 4.90303 4.64277 
6.20131 0.383706 3.03556 
3.67127 5.39851 1.23048 
5.46311 1.41325 5.34653 
2.87962 5.55702 3.70981 
0.0288002 3.11533 2.82251 
1.37329 3.09576 5.97841 
5.74585 5.19732 5.50712 
0.795259 3.16801 3.70273 
0.202921 5.68437 3.15662 
2.40663 0.541893 2.07121 
