ITEM: TIMESTEP
100000
ITEM: NUMBER OF ATOMS
256
ITEM: BOX BOUNDS
0 6.3454
0 6.3454
0 6.3454
ITEM: ATOMS f_myave[1] f_myave[2] f_myave[3] 
0 0 0 
0 0 0 
0 0 0 
0 0 0 
0 0 0 
0 0 0 
0 0 0 
0 0 0 
0 0 0 
0 0 0 
0 0 0 
0 0 0 
0 0 0 
0 0 0 
0 0 0 
0 0 0 
0 0 0 
0 0 0 
0 0 0 
0 0 0 
0 0 0 
0 0 0 
0 0 0 
0 0 0 
0 0 0 
0 0 0 
0 0 0 
0 0 0 
0 0 0 
0 0 0 
0 0 0 
0 0 0 
0 0 0 
0 0 0 
0 0 0 
0 0 0 
0 0 0 
0 0 0 
0 0 0 
0 0 0 
0 0 0 
0 0 0 
0 0 0 
0 0 0 
0 0 0 
0 0 0 
0 0 0 
0 0 0 
0 0 0 
0 0 0 
0 0 0 
0 0 0 
0 0 0 
0 0 0 
0 0 0 
0 0 0 
0 0 0 
0 0 0 
0 0 0 
0 0 0 
0 0 0 
0 0 0 
0 0 0 
0 0 0 
0 0 0 
0 0 0 
0 0 0 
0 0 0 
0 0 0 
0 0 0 
0 0 0 
0 0 0 
0 0 0 
0 0 0 
0 0 0 
0 0 0 
0 0 0 
0 0 0 
0 0 0 
0 0 0 
0 0 0 
0 0 0 
0 0 0 
0 0 0 
0 0 0 
0 0 0 
0 0 0 
0 0 0 
0 0 0 
0 0 0 
0 0 0 
0 0 0 
0 0 0 
0 0 0 
0 0 0 
0 0 0 
0 0 0 
0 0 0 
0 0 0 
0 0 0 
0 0 0 
0 0 0 
0 0 0 
0 0 0 
0 0 0 
0 0 0 
0 0 0 
0 0 0 
0 0 0 
0 0 0 
0 0 0 
0 0 0 
0 0 0 
0 0 0 
0 0 0 
0 0 0 
0 0 0 
0 0 0 
0 0 0 
0 0 0 
0 0 0 
0 0 0 
0 0 0 
0 0 0 
0 0 0 
0 0 0 
0 0 0 
0 0 0 
0 0 0 
0 0 0 
0 0 0 
0 0 0 
0 0 0 
0 0 0 
0 0 0 
0 0 0 
0 0 0 
0 0 0 
0 0 0 
0 0 0 
0 0 0 
0 0 0 
0 0 0 
0 0 0 
0 0 0 
0 0 0 
0 0 0 
0 0 0 
0 0 0 
0 0 0 
0 0 0 
0 0 0 
0 0 0 
0 0 0 
0 0 0 
0 0 0 
0 0 0 
0 0 0 
0 0 0 
0 0 0 
0 0 0 
0 0 0 
0 0 0 
0 0 0 
0 0 0 
0 0 0 
0 0 0 
0 0 0 
0 0 0 
0 0 0 
0 0 0 
0 0 0 
0 0 0 
0 0 0 
0 0 0 
0 0 0 
0 0 0 
0 0 0 
0 0 0 
0 0 0 
0 0 0 
0 0 0 
0 0 0 
0 0 0 
0 0 0 
0 0 0 
0 0 0 
0 0 0 
0 0 0 
0 0 0 
0 0 0 
0 0 0 
0 0 0 
0 0 0 
0 0 0 
0 0 0 
0 0 0 
0 0 0 
0 0 0 
0 0 0 
0 0 0 
0 0 0 
0 0 0 
0 0 0 
0 0 0 
0 0 0 
0 0 0 
0 0 0 
0 0 0 
0 0 0 
0 0 0 
0 0 0 
0 0 0 
0 0 0 
0 0 0 
0 0 0 
0 0 0 
0 0 0 
0 0 0 
0 0 0 
0 0 0 
0 0 0 
0 0 0 
0 0 0 
0 0 0 
0 0 0 
0 0 0 
0 0 0 
0 0 0 
0 0 0 
0 0 0 
0 0 0 
0 0 0 
0 0 0 
0 0 0 
0 0 0 
0 0 0 
0 0 0 
0 0 0 
0 0 0 
0 0 0 
0 0 0 
0 0 0 
0 0 0 
0 0 0 
0 0 0 
0 0 0 
0 0 0 
0 0 0 
0 0 0 
0 0 0 
0 0 0 
0 0 0 
0 0 0 
0 0 0 
0 0 0 
ITEM: TIMESTEP
200000
ITEM: NUMBER OF ATOMS
256
ITEM: BOX BOUNDS
0 6.3454
0 6.3454
0 6.3454
ITEM: ATOMS f_myave[1] f_myave[2] f_myave[3] 
0.772428 0.760599 4.73457 
2.66314 2.0445 1.24681 
1.57237 0.0792023 1.40714 
5.15003 2.03973 2.05715 
1.44223 4.01127 5.39314 
2.93423 5.36636 4.76793 
1.9001 4.41487 2.44905 
3.98777 3.43629 4.85642 
5.73694 4.90983 3.13016 
0.450675 1.14608 1.62361 
0.217213 0.251152 4.03324 
1.7745 0.368801 5.91229 
5.38714 6.2378 5.76922 
0.220825 3.78117 3.34743 
2.62835 3.88901 1.6962 
0.379697 1.95011 3.10338 
3.69409 3.76765 3.73895 
5.87512 2.03675 3.96591 
3.51069 5.63504 2.83656 
1.72115 2.24927 5.56261 
1.57746 3.68345 1.57275 
3.07575 4.59393 4.00048 
5.5919 3.03077 2.10755 
1.33609 2.8813 0.78666 
4.26597 4.39279 4.4075 
4.37072 3.59229 1.08006 
5.11545 2.83333 1.17167 
3.4545 3.35149 0.465903 
0.611474 0.145481 2.04516 
3.64015 2.63164 1.261 
3.48826 6.06261 4.70159 
2.00836 4.89032 3.73919 
0.127592 4.5024 4.96693 
6.05937 3.81792 0.49518 
1.97522 5.67408 4.42002 
1.46446 3.22545 3.4888 
2.8728 2.8197 2.04676 
2.9864 2.00141 3.83862 
5.82685 0.938535 0.682542 
1.39116 1.69739 4.73087 
4.3439 2.41907 4.75978 
4.85762 5.01612 3.74522 
2.5492 5.90732 1.32355 
4.6325 0.887971 0.785657 
3.09139 0.565724 1.17136 
1.816 2.68604 1.79823 
0.943084 1.80472 1.99691 
1.88149 5.24151 5.37598 
2.46242 3.07508 1.00362 
3.37774 6.20634 1.91046 
4.08785 1.69541 3.86409 
4.18192 1.67946 0.107708 
1.2921 5.75918 6.08208 
2.23383 0.272577 0.570024 
2.13154 2.17359 0.242386 
6.19353 0.0838488 0.112844 
5.79381 1.2368 2.52788 
5.65726 3.8949 2.75777 
0.482816 1.74332 4.24149 
2.08266 3.35361 2.58704 
0.314918 4.58549 2.67024 
4.45306 6.18431 5.22943 
2.5206 0.232433 4.10909 
4.61818 5.42415 0.639995 
1.36252 2.17796 3.77497 
3.38147 6.0025 5.73901 
3.6991 0.730074 0.293548 
2.52993 5.7497 2.46506 
3.82054 2.42886 5.6984 
3.73714 4.61814 2.20839 
5.5248 6.06877 4.67913 
5.05733 3.55788 0.230123 
0.496904 1.0676 0.266094 
5.70662 4.71958 2.01328 
3.23739 6.10325 0.472195 
5.29933 4.49382 6.096 
4.64597 1.17924 2.47514 
5.27803 1.07196 1.59797 
0.5204 1.01053 2.64262 
3.86871 2.73205 3.83233 
1.85946 0.750705 4.90874 
0.977011 4.55941 1.79584 
4.95213 3.07799 2.96018 
2.77298 5.11306 0.594676 
0.684972 3.94758 6.25726 
1.2101 1.29153 5.70477 
4.19361 0.787584 4.57129 
1.62576 3.83303 0.428475 
6.0427 3.85972 5.75361 
2.13827 1.05175 1.30494 
3.27782 0.961961 3.92816 
2.92 3.05322 3.43252 
5.38487 2.62316 4.75224 
5.31164 4.35096 4.8941 
0.247739 1.45064 5.36219 
3.73994 5.22742 0.232977 
2.16213 3.16624 5.19224 
0.235479 5.73274 5.73077 
1.88276 4.79607 3.08058 
5.65014 4.14257 3.86332 
0.460559 2.03791 1.02055 
2.35864 5.8299 6.22024 
4.68696 4.02774 3.33763 
1.05981 5.52178 3.87488 
2.60008 1.34258 3.01403 
1.2076 4.28012 3.42364 
5.53397 5.92037 3.59238 
1.18249 5.22592 2.80477 
2.83289 3.60421 4.41667 
3.67597 4.76749 3.66104 
3.86664 5.37382 4.15959 
4.8762 3.45466 4.25073 
2.43705 4.07627 5.74946 
5.16113 0.693592 5.07972 
2.64951 4.05684 0.493881 
1.20955 6.11153 5.06601 
2.20369 2.71312 4.18834 
4.46944 1.54004 5.41352 
3.32116 1.47579 5.86734 
3.07977 3.86081 2.70993 
2.73307 1.29052 0.423178 
0.703387 0.364973 5.82602 
5.14394 5.52181 1.54001 
5.43344 5.75365 2.52478 
3.88193 4.73892 3.27765 
0.412537 5.54259 2.20814 
1.1449 0.192588 0.445836 
2.46484 1.80652 4.78583 
3.64446 3.57228 1.84342 
5.35023 0.567372 3.98643 
1.71988 3.73592 4.3686 
4.65788 3.85351 2.22285 
0.66862 2.37831 5.56419 
5.17024 0.377589 2.91682 
6.01368 1.1275 4.56947 
4.52615 4.63269 1.45729 
4.43896 2.83231 1.98338 
2.40785 3.15344 5.90493 
3.20594 2.65385 4.71014 
4.39015 4.39957 0.343162 
6.09224 5.65268 1.15546 
5.07868 3.45595 5.40105 
3.88503 3.17164 2.83735 
3.66367 1.23829 2.91991 
0.0720073 3.79552 1.93301 
1.85514 0.576038 3.13516 
4.59722 6.16828 4.16181 
5.8742 0.16878 1.83074 
4.81458 0.154239 1.9081 
0.997575 4.72199 0.636862 
0.327211 4.70167 3.88232 
0.278124 0.232981 1.05207 
2.29922 4.50859 4.75575 
1.20761 2.80215 4.67761 
4.39823 2.15185 2.91706 
5.97738 3.54023 4.69873 
1.92847 5.8878 3.35397 
5.42584 3.83856 1.41619 
4.28752 6.22214 3.64574 
2.31584 3.93129 3.47663 
3.18976 3.33652 5.56717 
0.49791 5.63834 0.417592 
0.112834 2.60137 4.69521 
5.64658 2.6961 0.281104 
3.59692 1.54544 1.01393 
5.15041 1.46187 3.38208 
3.23411 2.30139 0.294683 
2.92979 0.827537 4.99391 
1.06122 2.04487 0.135984 
6.1988 1.07635 3.5141 
4.53043 5.81836 3.13459 
4.61023 1.89585 1.1302 
2.77912 4.83556 2.95357 
4.7167 5.34482 5.88828 
5.4154 4.70055 0.810239 
0.65838 3.74052 4.31777 
4.1341 5.8219 1.07879 
1.76816 5.32565 1.83795 
2.87981 5.0306 5.78074 
0.372327 2.93369 0.19097 
1.56337 1.91292 1.12264 
4.24589 5.60399 2.07173 
0.550922 3.41065 5.3253 
3.47326 4.21953 6.15119 
5.87099 0.928428 5.93849 
1.65119 1.15787 0.32743 
4.3884 0.732338 3.53092 
2.91522 0.285749 3.02001 
4.00536 0.832304 1.70023 
0.756377 2.89252 1.74276 
6.11523 1.91985 5.05874 
1.69304 5.58795 0.731059 
2.83569 0.493003 6.04493 
1.96586 4.58618 1.12961 
0.873814 4.86348 5.68624 
4.80769 0.771573 6.09714 
5.99146 2.78742 5.63705 
5.61982 5.51963 0.162114 
1.54814 6.16721 2.41664 
4.99651 1.56108 4.45258 
1.46444 0.85867 2.15463 
1.45747 1.56331 2.94161 
4.3506 2.68659 0.415822 
5.23696 1.69514 0.146148 
0.939996 1.01355 3.66768 
1.01064 3.68169 2.52584 
3.85012 0.625685 5.57177 
2.108 1.74844 2.1351 
3.56604 1.6584 4.81543 
3.05509 1.28099 1.99765 
0.324197 5.58142 4.67189 
4.90251 2.44464 3.81176 
6.19428 2.97001 1.18889 
4.39358 4.33686 5.50766 
3.51784 4.32146 1.05233 
2.19616 2.36321 3.06556 
1.0178 1.00276 1.2036 
2.26825 1.35376 5.76478 
5.73204 1.94047 1.09323 
1.43167 0.188092 4.09125 
2.80494 4.94301 1.78187 
3.29201 2.22767 2.82152 
3.86285 5.22053 5.25145 
1.18503 2.58832 2.69963 
3.34295 4.31164 5.05348 
3.9388 1.88207 1.99702 
2.03888 1.27645 3.93972 
0.824374 5.60116 1.42432 
2.75823 2.35119 5.66365 
5.78673 5.1194 4.27874 
0.0756536 4.63335 1.18949 
4.78244 4.85245 2.60857 
2.44002 6.22032 5.20746 
4.17808 3.40756 5.98778 
6.18787 0.263725 5.16131 
0.869628 1.17052 3.18042 
5.68631 2.28543 2.94642 
5.26206 2.32862 0.800292 
4.01863 0.264941 2.64037 
5.78727 3.08945 3.69307 
4.88958 2.4972 5.82196 
6.26712 2.1519 2.0217 
3.06378 4.76626 2.86584 
4.80919 5.2744 4.78513 
0.664879 3.72149 1.00191 
1.20365 4.73578 4.5966 
6.19743 0.175608 2.87637 
3.64493 5.36572 1.2083 
5.56095 1.77246 5.38101 
2.87831 5.61949 3.71835 
0.155212 2.96963 2.68445 
1.35062 3.10808 6.0355 
5.72561 5.22119 5.39886 
0.494483 2.80822 3.73012 
0.178986 5.58619 3.29375 
2.43087 0.399258 2.08138 
ITEM: TIMESTEP
300000
ITEM: NUMBER OF ATOMS
256
ITEM: BOX BOUNDS
0 6.3454
0 6.3454
0 6.3454
ITEM: ATOMS f_myave[1] f_myave[2] f_myave[3] 
0.773207 0.755573 4.73606 
2.66541 2.04557 1.24271 
1.57538 0.079587 1.40457 
5.14888 2.04246 2.05728 
1.43138 3.99762 5.38913 
2.93483 5.36649 4.76175 
1.90307 4.4148 2.44321 
4.00012 3.4405 4.86995 
5.73217 4.90787 3.13788 
0.223907 1.14749 1.6307 
0.121925 0.133205 4.03693 
1.78233 0.368592 5.9102 
5.37628 6.24607 5.78458 
0.227124 3.78368 3.361 
2.62853 3.88514 1.67653 
0.376167 1.94841 3.10587 
3.69805 3.76069 3.77137 
5.88566 2.0306 3.96266 
3.51954 5.62708 2.83307 
1.72199 2.24822 5.55754 
1.57373 3.6815 1.5726 
3.06907 4.58883 3.99659 
5.58873 3.03351 2.11373 
1.31323 2.87497 0.791437 
4.28049 4.3969 4.41021 
4.37019 3.59626 1.07515 
5.11037 2.83446 1.17923 
3.44533 3.34898 0.471443 
0.614432 0.143759 2.04453 
3.64166 2.63111 1.26288 
3.49289 5.91794 4.69814 
2.00548 4.89091 3.7302 
0.124015 4.50951 4.9847 
6.05463 3.81491 0.505664 
1.97495 5.66942 4.41764 
1.46672 3.22491 3.48849 
2.86216 2.82835 2.03451 
2.99771 2.00087 3.82358 
5.83589 0.932164 0.697193 
1.40945 1.6918 4.72521 
4.34286 2.42239 4.74792 
4.84526 5.0425 3.73829 
2.54756 5.90685 1.322 
4.63711 0.889884 0.786344 
3.09606 0.566474 1.16967 
1.80466 2.68153 1.79842 
0.9482 1.80716 1.99286 
1.88413 5.24034 5.37694 
2.43632 3.06889 0.991226 
3.37739 6.2012 1.90496 
4.09982 1.69201 3.86476 
4.17971 1.68454 0.104624 
1.29721 5.76302 6.07814 
2.23816 0.273275 0.566551 
2.1323 2.17709 0.236558 
6.20856 0.080526 0.204063 
5.79826 1.24621 2.53075 
5.66484 3.8941 2.76576 
0.489178 1.74251 4.26557 
2.07099 3.352 2.58299 
0.309801 4.58146 2.67452 
4.45513 6.1869 5.22929 
2.52559 0.224202 4.11218 
4.61956 5.42075 0.639127 
1.36311 2.17266 3.77348 
3.38123 6.00204 5.7351 
3.7018 0.732491 0.290256 
2.53378 5.74518 2.46411 
3.82213 2.43271 5.68926 
3.73712 4.61259 2.2076 
5.51992 6.07886 4.68558 
5.05586 3.55984 0.227122 
0.500134 1.06188 0.256931 
5.69841 4.71822 2.02014 
3.23745 6.10379 0.469662 
5.30304 4.49388 6.09159 
4.64352 1.18027 2.47864 
5.27625 1.07035 1.60538 
0.525687 1.01267 2.64177 
3.88033 2.72797 3.81001 
1.86068 0.742472 4.90724 
0.974972 4.56261 1.79943 
4.95188 3.08951 2.97191 
2.7689 5.11115 0.592482 
0.683981 3.93836 6.26268 
1.21793 1.29062 5.69851 
4.20437 0.786192 4.56523 
1.6227 3.82259 0.433238 
6.0425 3.84688 5.76673 
2.14305 1.04966 1.30102 
3.28257 0.959476 3.926 
2.92576 3.05689 3.43753 
5.38364 2.61878 4.75756 
5.31425 4.35525 4.91065 
0.236749 1.40086 5.40044 
3.73893 5.22634 0.38905 
2.15364 3.16517 5.18888 
0.24971 5.72687 5.72487 
1.87717 4.79041 3.33987 
5.65571 4.14505 3.87619 
0.462317 2.03427 1.02149 
2.36104 5.82766 6.21934 
4.69917 4.04247 3.34883 
1.06187 5.52101 3.86981 
2.60079 1.33979 3.00714 
1.20234 4.28442 3.42328 
5.53901 5.93033 3.59455 
1.17028 5.23009 2.79419 
2.82147 3.60406 4.42031 
3.67493 4.87103 3.65743 
3.85997 5.36685 4.15674 
4.87942 3.45326 4.25354 
2.42854 4.07958 5.73912 
5.16135 0.701527 5.08782 
2.64442 4.05698 0.492172 
1.21257 6.10592 5.05985 
2.20492 2.71033 4.18564 
4.46759 1.54348 5.40804 
3.32412 1.4801 5.86081 
3.05902 3.84599 2.69264 
2.73586 1.2925 0.418343 
0.716093 0.360757 5.8196 
5.14951 5.53054 1.53745 
5.44394 5.7546 2.52601 
3.87438 4.722 3.27695 
0.24459 5.5347 2.20522 
1.14982 0.192564 0.443038 
2.47613 1.81027 4.77705 
3.64639 3.57397 1.83924 
5.33964 0.572798 3.99563 
1.71143 3.73893 4.36459 
4.66695 3.86513 2.22836 
0.662371 2.34265 5.54914 
5.1874 0.391109 2.91844 
6.01923 1.12269 4.57213 
4.5267 4.63617 1.45618 
4.43801 2.84166 1.99873 
2.40836 3.15706 6.11034 
3.21801 2.6585 4.69489 
4.38868 4.40088 0.335453 
6.09653 5.65786 1.15093 
5.07323 3.45209 5.40492 
3.89454 3.22248 2.8464 
3.66325 1.26467 2.92632 
0.16172 3.79612 1.93298 
1.84798 0.579758 3.1332 
4.59482 6.16172 4.15754 
5.87286 0.168156 1.82524 
4.80976 0.154114 1.92349 
0.995856 4.71459 0.640332 
0.324773 4.70645 3.89354 
0.285261 0.234368 1.05132 
2.29411 4.51198 4.74772 
1.20748 2.79896 4.67718 
4.40785 2.1566 2.91701 
5.97217 3.54302 4.71196 
1.93118 5.89161 3.35255 
5.41991 3.83924 1.41925 
4.28043 6.21531 3.81902 
2.31358 3.92895 3.47478 
3.1854 3.34104 5.5547 
0.506485 5.63331 0.413875 
0.108611 2.6096 4.69046 
5.63664 2.69199 0.285929 
3.59786 1.54837 1.01175 
5.15149 1.46126 3.38499 
3.23388 2.30133 0.288879 
2.92934 0.825951 4.98755 
1.05776 2.04103 0.132329 
6.1986 1.0678 3.51464 
4.53519 5.84941 3.11578 
4.61197 1.89473 1.13001 
2.78684 4.82814 2.94689 
4.71697 5.34353 5.88948 
5.4156 4.69969 0.810348 
0.649485 3.74393 4.33859 
4.14057 5.8642 1.07884 
1.76831 5.32713 1.837 
2.88118 5.03024 5.77607 
0.361674 2.92713 0.186551 
1.569 1.91095 1.11613 
4.24465 5.60005 2.05888 
0.545274 3.38729 5.33977 
3.46448 4.21657 6.15032 
5.83648 0.920758 5.9633 
1.65635 1.15885 0.322065 
4.3862 0.727903 3.52035 
2.90064 0.27903 3.03153 
4.01168 0.83589 1.69314 
0.746993 2.89416 1.75177 
6.12876 1.91429 4.92865 
1.69167 5.5854 0.72839 
2.83971 0.494334 6.04144 
1.96222 4.58556 1.12964 
0.885069 4.85546 5.7064 
4.77712 0.776127 6.09595 
5.98965 2.7755 5.64174 
5.62518 5.5178 0.162146 
1.55227 6.17014 2.41511 
5.00613 1.5672 4.45699 
1.46796 0.859906 2.14938 
1.45876 1.56589 2.93646 
4.35064 2.68782 0.419496 
5.23265 1.68685 0.160959 
0.940407 1.02051 3.66988 
1.00676 3.68477 2.52633 
3.84382 0.625776 5.5608 
2.11186 1.74655 2.12968 
3.56923 1.65597 4.80823 
3.06167 1.28239 1.99522 
0.321401 5.58436 4.66494 
4.91314 2.44377 3.81243 
6.18966 2.96435 1.19215 
4.38739 4.33601 5.51517 
3.51894 4.32321 1.04581 
2.20201 2.36404 3.0599 
1.02094 1.00509 1.19746 
2.27258 1.35524 5.7581 
5.73368 1.94063 1.10042 
1.43311 0.188722 4.08854 
2.80496 4.94037 1.77515 
3.30845 2.26144 2.80638 
3.8634 5.22019 5.24931 
1.17931 2.5887 2.70389 
3.34416 4.31293 5.04543 
3.94529 1.88571 1.99559 
2.05337 1.26539 3.93889 
0.826614 5.60291 1.42138 
2.7602 2.35517 5.6545 
5.7776 5.12529 4.28274 
0.204057 4.63822 1.19656 
4.77555 4.86506 2.61585 
2.44188 6.21626 5.20547 
4.16966 3.40634 5.99406 
6.24964 0.267606 5.17998 
0.87176 0.914273 3.18077 
5.68166 2.29189 2.94841 
5.25903 3.17768 0.782826 
3.99103 0.285382 2.63481 
5.79506 3.08987 3.7019 
4.89033 2.49003 5.82679 
6.22104 2.15559 2.0272 
3.04782 4.75957 2.46568 
4.80929 5.27787 4.78649 
0.658807 3.72143 1.00619 
1.19963 4.74559 4.60732 
6.20646 0.173332 2.86639 
3.64142 5.36608 1.19926 
5.56712 1.76647 5.38629 
2.87951 5.61425 3.71013 
0.151242 2.97564 2.6932 
1.34307 3.09434 6.04096 
5.72437 5.23609 5.40226 
0.501283 2.80748 3.73037 
0.177347 5.58491 3.29406 
2.43629 0.400067 2.0825 
ITEM: TIMESTEP
400000
ITEM: NUMBER OF ATOMS
256
ITEM: BOX BOUNDS
0 6.3454
0 6.3454
0 6.3454
ITEM: ATOMS f_myave[1] f_myave[2] f_myave[3] 
0.761227 0.73401 4.73986 
2.64763 2.05537 1.2253 
1.56671 0.0886184 1.40177 
5.15434 2.0445 2.06212 
1.42417 3.97321 5.3698 
2.93731 5.35922 4.77039 
1.87923 4.39125 2.48614 
3.983 3.4366 4.86566 
5.74401 4.90836 3.14342 
0.233699 1.15102 1.63397 
0.149327 0.136106 4.04286 
1.78668 0.365473 5.91139 
5.34553 6.25235 5.80837 
0.46402 3.80209 3.36631 
2.63015 3.95084 1.72498 
0.380332 1.96304 3.13782 
3.69884 3.76693 3.74399 
5.87361 2.02127 3.97377 
3.50378 5.63682 2.82258 
1.71907 2.24263 5.54258 
1.59685 3.69222 1.56937 
3.07529 4.59229 3.99191 
5.59977 3.03117 2.1077 
1.35054 2.88626 0.779305 
4.27722 4.38755 4.41173 
4.35893 3.5966 1.09026 
5.12123 2.85523 1.17117 
3.45871 3.35876 0.458373 
0.6084 0.173842 2.03441 
3.63944 2.63548 1.25261 
3.48057 6.08448 4.69235 
1.98117 4.88277 3.71567 
0.131363 4.50798 5.02977 
6.05902 3.81464 0.518992 
1.98471 5.65886 4.41 
1.50839 3.21274 3.45776 
2.88362 2.76168 2.04965 
2.98283 1.99537 3.83964 
5.85051 0.954528 0.692612 
1.4016 1.68396 4.71265 
4.34693 2.4214 4.75625 
4.85242 5.02413 3.74298 
2.53242 5.92564 1.32948 
4.63122 0.903875 0.798479 
3.08815 0.574862 1.16549 
1.8269 2.69292 1.78958 
0.943748 1.79856 1.98916 
1.89436 5.24192 5.37585 
2.50903 3.1111 1.03621 
3.3812 6.20293 1.8887 
4.08668 1.69187 3.84389 
4.16875 1.69645 0.107373 
1.30228 5.75652 6.09105 
2.2328 0.27739 0.563654 
2.12196 2.17003 0.225705 
6.22072 0.094869 0.0819455 
5.7952 1.24115 2.53224 
5.64573 3.91648 2.72988 
0.470105 1.72969 4.29644 
2.13627 3.34749 2.57206 
0.315802 4.58092 2.66886 
4.4414 6.17578 5.22124 
2.52306 0.223008 4.10445 
4.63912 5.43217 0.619959 
1.35103 2.17954 3.77367 
3.37156 5.99469 5.72832 
3.70365 0.738231 0.289488 
2.5245 5.7724 2.46514 
3.81717 2.4355 5.68904 
3.7452 4.61416 2.20259 
5.51381 6.08162 4.68735 
5.05405 3.57567 0.237501 
0.504481 1.06208 0.236613 
5.73816 4.75561 2.00433 
3.2423 6.10969 0.475172 
5.30794 4.50066 6.09366 
4.64509 1.17789 2.46993 
5.28478 1.08059 1.59982 
0.519431 1.02699 2.65595 
3.86619 2.72916 3.83689 
1.85653 0.74135 4.90758 
0.977395 4.5541 1.79525 
4.96218 3.0873 2.96282 
2.78172 5.12555 0.611165 
0.680665 3.92665 6.25875 
1.22097 1.28722 5.68893 
4.19016 0.781403 4.55962 
1.63251 3.83599 0.406537 
6.02701 3.81858 5.78389 
2.13298 1.05704 1.29571 
3.27912 0.955895 3.91966 
2.92057 3.05056 3.42911 
5.38797 2.62485 4.74189 
5.3267 4.36361 4.93041 
0.226186 1.36236 5.42516 
3.74075 5.22997 0.411901 
2.16551 3.1595 5.18441 
0.270197 5.70884 5.73118 
1.90502 4.80637 2.67323 
5.61841 4.14564 3.88016 
0.454789 2.02571 1.0103 
2.36894 5.8308 6.22112 
4.67984 4.03358 3.32988 
1.06281 5.52621 3.88733 
2.59951 1.34077 3.00273 
1.1828 4.24668 3.43978 
5.52753 5.92274 3.59557 
1.1771 5.2129 2.82604 
2.82857 3.60112 4.40843 
3.67538 5.03323 3.65342 
3.86521 5.36709 4.16743 
4.85415 3.44241 4.23847 
2.41771 4.07301 5.73627 
5.13929 0.695018 5.09229 
2.65613 4.07316 0.476489 
1.22424 6.08692 5.0604 
2.20264 2.70455 4.18391 
4.45588 1.54257 5.40788 
3.32394 1.47999 5.85223 
3.10795 3.87672 2.73376 
2.73586 1.29582 0.414298 
0.729925 0.350372 5.80714 
5.1392 5.53837 1.53073 
5.45352 5.75115 2.51828 
3.88426 4.751 3.27223 
0.327671 5.56554 2.24936 
1.13944 0.191995 0.441708 
2.46836 1.80702 4.78464 
3.61499 3.55647 1.85003 
5.33524 0.569682 3.98887 
1.71612 3.72571 4.34722 
4.63322 3.85489 2.22406 
0.654922 2.31615 5.52368 
5.17556 0.376758 2.91208 
6.00648 1.10569 4.58339 
4.53507 4.63857 1.45523 
4.4406 2.83505 1.97776 
2.40805 3.15424 4.97876 
3.20426 2.65462 4.71166 
4.38466 4.40785 0.347148 
6.10721 5.65157 1.20368 
5.06802 3.44686 5.38248 
3.8903 3.15989 2.83871 
3.659 1.22984 2.9037 
0.0780346 3.79536 1.92328 
1.85509 0.56926 3.12438 
4.59273 6.16086 4.15407 
5.87419 0.183272 1.84155 
4.81244 0.161999 1.90663 
1.00554 4.72112 0.613853 
0.331128 4.70528 3.91492 
0.265201 0.234968 1.04388 
2.28872 4.50822 4.7348 
1.20973 2.80196 4.681 
4.41246 2.15449 2.90639 
5.97321 3.55271 4.71051 
1.92225 5.88723 3.34978 
5.42105 3.85835 1.4419 
4.26516 6.21328 4.77617 
2.32672 3.93595 3.47092 
3.18244 3.33914 5.57416 
0.490999 5.63493 0.432488 
0.115476 2.6242 4.65955 
5.63651 2.70727 0.273276 
3.59423 1.55334 1.01366 
5.14727 1.45771 3.37921 
3.23058 2.30825 0.288453 
2.92464 0.827704 4.98342 
1.05274 2.04581 0.11998 
6.19354 1.0751 3.52179 
4.53276 5.81756 3.11873 
4.60688 1.9151 1.13745 
2.76845 4.84201 2.92982 
4.72231 5.34331 5.88507 
5.42273 4.70294 0.808377 
0.651034 3.75351 4.35104 
4.14824 5.74454 1.06849 
1.78584 5.29441 1.86583 
2.87905 5.02168 5.78508 
0.361331 2.92181 0.178074 
1.55212 1.91606 1.11248 
4.24548 5.60138 2.06653 
0.53418 3.37011 5.34393 
3.47912 4.21983 6.13864 
5.79167 0.928518 5.9708 
1.64856 1.15886 0.318761 
4.38209 0.725724 3.51641 
2.91297 0.288658 3.02531 
3.99514 0.834446 1.7007 
0.764411 2.88494 1.7359 
6.18522 1.91297 4.59331 
1.69512 5.59103 0.734345 
2.84301 0.493217 6.04097 
1.96824 4.59191 1.1194 
0.918067 4.83987 5.72476 
4.74658 0.784494 6.10595 
5.99154 2.75597 5.627 
5.65486 5.52663 0.173601 
1.52952 6.15372 2.40556 
4.98733 1.55694 4.44992 
1.45981 0.857561 2.15188 
1.45827 1.55604 2.94781 
4.35958 2.69586 0.416338 
5.21978 1.69923 0.166034 
0.93488 1.02408 3.68827 
1.01219 3.66801 2.52133 
3.83459 0.618074 5.55482 
2.09334 1.74779 2.12829 
3.5675 1.65661 4.79629 
3.04694 1.30304 1.98102 
0.315174 5.59175 4.67062 
4.90246 2.43838 3.80612 
6.20223 2.96483 1.18586 
4.39851 4.33174 5.5108 
3.51111 4.31855 1.06276 
2.20103 2.35644 3.05529 
1.01016 1.00358 1.19153 
2.27227 1.35131 5.75871 
5.72856 1.95484 1.10076 
1.43595 0.18649 4.08932 
2.84248 4.99255 1.77782 
3.30592 2.21883 2.84014 
3.86418 5.20861 5.25831 
1.18129 2.57673 2.69251 
3.33588 4.30888 5.04416 
3.93387 1.89051 1.99791 
2.04927 1.26184 3.93511 
0.845179 5.59841 1.437 
2.75298 2.35457 5.66381 
5.78119 5.12231 4.28938 
0.175936 4.63676 1.1709 
4.80075 4.851 2.59776 
2.43873 6.21701 5.19956 
4.18079 3.4049 5.98439 
6.22835 0.260697 5.21457 
0.871475 1.4918 3.18249 
5.69025 2.28749 2.95398 
5.28112 1.73447 0.784039 
4.01053 0.258728 2.62995 
5.79099 3.08343 3.70864 
4.8891 2.49067 5.8175 
6.27429 2.15788 2.02912 
2.65381 4.75337 3.31287 
4.80794 5.27212 4.78368 
0.679804 3.72044 0.998765 
1.19947 4.7482 4.62069 
6.20197 0.175699 2.88529 
3.67973 5.35958 1.18469 
5.56015 1.76696 5.36833 
2.87604 5.6108 3.71036 
0.155144 2.98266 2.69407 
1.34429 3.08586 6.03289 
5.72303 5.25974 5.40605 
0.528286 2.85591 3.71408 
0.174546 5.59251 3.33376 
2.4336 0.419012 2.08331 
ITEM: TIMESTEP
500000
ITEM: NUMBER OF ATOMS
256
ITEM: BOX BOUNDS
0 6.3454
0 6.3454
0 6.3454
ITEM: ATOMS f_myave[1] f_myave[2] f_myave[3] 
0.765357 0.755824 4.7372 
2.6609 2.04556 1.24836 
1.57933 0.082948 1.40633 
5.1511 2.04378 2.06209 
1.43592 3.99597 5.38779 
2.93573 5.3684 4.77317 
1.90641 4.41325 2.44655 
3.98493 3.43522 4.85801 
5.73773 4.91189 3.13342 
0.219989 1.15363 1.62178 
0.242685 0.185593 4.0372 
1.77571 0.368226 5.91383 
5.37232 6.24066 5.78059 
0.216443 3.78078 3.34973 
2.62655 3.89904 1.69793 
0.386603 1.95083 3.09968 
3.69383 3.76995 3.73135 
5.87176 2.03533 3.96883 
3.51091 5.63631 2.83049 
1.72026 2.24869 5.56384 
1.58028 3.68668 1.56693 
3.07837 4.59501 4.00318 
5.59836 3.03159 2.11033 
1.34468 2.88242 0.781815 
4.26412 4.39212 4.40772 
4.37134 3.59704 1.07566 
5.11999 2.84445 1.17364 
3.4552 3.3523 0.460572 
0.616028 0.209325 2.03679 
3.63876 2.63142 1.25746 
3.48123 5.81324 4.69234 
2.01443 4.88485 3.73189 
0.127607 4.50527 4.98284 
6.05348 3.81444 0.503877 
1.97785 5.66556 4.41707 
1.46277 3.225 3.48659 
2.88018 2.8078 2.05271 
2.98083 1.99433 3.84248 
5.82994 0.944643 0.683905 
1.38557 1.70024 4.73316 
4.34411 2.41821 4.75896 
4.85644 5.02024 3.74747 
2.55227 5.90899 1.32133 
4.63336 0.896023 0.788309 
3.09291 0.566124 1.16849 
1.82805 2.69129 1.7876 
0.941006 1.80053 1.99907 
1.88214 5.2443 5.37675 
2.48508 3.07986 1.00815 
3.38086 6.20777 1.90582 
4.08323 1.69664 3.85749 
4.1781 1.68609 0.109486 
1.28873 5.75753 6.08816 
2.23547 0.274247 0.567027 
2.13088 2.17048 0.24518 
6.19953 0.0883814 0.236529 
5.79709 1.24019 2.52774 
5.65336 3.90475 2.74816 
0.481569 1.73835 4.2363 
2.0891 3.35079 2.58466 
0.320822 4.58644 2.67787 
4.4472 6.18115 5.2237 
2.51358 0.230411 4.11097 
4.62097 5.43138 0.635606 
1.35874 2.17815 3.77705 
3.37059 5.99885 5.72783 
3.69961 0.734569 0.291166 
2.53033 5.74557 2.46187 
3.81976 2.42963 5.69535 
3.73785 4.61575 2.21254 
5.51899 6.07459 4.68514 
5.05553 3.56124 0.222513 
0.499569 1.0648 0.261759 
5.73115 4.73655 2.01454 
3.23552 6.10582 0.466135 
5.30278 4.49652 6.09489 
4.64573 1.1805 2.47418 
5.27905 1.07629 1.59968 
0.521523 1.00737 2.64369 
3.86875 2.73563 3.83811 
1.85004 0.751045 4.90847 
0.972496 4.56145 1.79257 
4.95102 3.08157 2.95718 
2.77403 5.11419 0.591097 
0.679124 3.94009 6.25545 
1.20978 1.28924 5.70531 
4.19561 0.785516 4.56764 
1.62507 3.83626 0.419469 
6.03469 3.84851 5.75944 
2.14001 1.05349 1.30509 
3.27838 0.954969 3.92819 
2.92304 3.04767 3.43143 
5.3841 2.62517 4.74977 
5.32093 4.35333 4.90335 
0.240998 1.43433 5.3794 
3.7404 5.22989 0.366704 
2.16315 3.16279 5.18904 
0.245466 5.72634 5.72494 
1.88574 4.80037 3.46834 
5.64748 4.14675 3.8669 
0.458949 2.0353 1.01882 
2.35745 5.83041 6.21579 
4.68845 4.03196 3.33888 
1.06992 5.50275 3.86676 
2.5971 1.33494 3.01255 
1.20287 4.27982 3.43056 
5.53157 5.92432 3.59426 
1.19087 5.2209 2.80009 
2.83353 3.60339 4.41433 
3.6821 5.14393 3.65456 
3.86639 5.37511 4.16795 
4.87465 3.45755 4.25227 
2.42853 4.0738 5.74846 
5.15746 0.696647 5.08347 
2.64956 4.05827 0.489307 
1.21934 6.10733 5.07021 
2.20262 2.71174 4.18714 
4.46501 1.54035 5.41214 
3.32206 1.47694 5.86396 
3.07903 3.85295 2.70467 
2.73456 1.29 0.423098 
0.709484 0.359126 5.82361 
5.1439 5.51892 1.53822 
5.44817 5.75351 2.51939 
3.88627 4.74783 3.27992 
0.514493 5.55412 2.23536 
1.14169 0.190196 0.448978 
2.45946 1.81028 4.78908 
3.63925 3.57131 1.83522 
5.34868 0.571176 3.98745 
1.72321 3.73737 4.36373 
4.64374 3.85618 2.22626 
0.665776 2.36632 5.56137 
5.17404 0.377536 2.9116 
6.01341 1.1269 4.57458 
4.52034 4.6361 1.45553 
4.4392 2.8344 1.97993 
2.4009 3.15151 5.44433 
3.20513 2.65232 4.71179 
4.39229 4.40697 0.340221 
6.10123 5.65654 1.18845 
5.07352 3.45199 5.39288 
3.88118 3.1612 2.83346 
3.65971 1.22973 2.9161 
0.126729 3.79868 1.92996 
1.84809 0.572865 3.13964 
4.59874 6.16582 4.15692 
5.87864 0.183351 1.84397 
4.8166 0.152896 1.90177 
0.998506 4.72514 0.626311 
0.32292 4.69451 3.89723 
0.268087 0.237784 1.04841 
2.30051 4.51026 4.75572 
1.207 2.8062 4.6785 
4.39958 2.15326 2.91444 
5.98027 3.54001 4.69799 
1.93405 5.88675 3.35244 
5.42327 3.84915 1.43355 
4.27106 6.21697 4.62636 
2.32072 3.92559 3.47347 
3.18615 3.33706 5.57015 
0.484238 5.63706 0.421267 
0.110776 2.59461 4.69482 
5.64463 2.69697 0.283016 
3.59661 1.54699 1.0159 
5.15174 1.464 3.38004 
3.23104 2.30133 0.294246 
2.9203 0.830398 4.99154 
1.06013 2.04417 0.135899 
6.19816 1.08306 3.51538 
4.53569 5.81572 3.12559 
4.60887 1.90483 1.13539 
2.79074 4.83038 2.94838 
4.71958 5.34448 5.88912 
5.41036 4.69934 0.811384 
0.65966 3.73998 4.32266 
4.13272 5.69401 1.07063 
1.77266 5.32122 1.83725 
2.876 5.02507 5.78333 
0.368948 2.92793 0.194051 
1.55888 1.9127 1.12447 
4.24562 5.60144 2.06667 
0.542233 3.40117 5.32736 
3.47557 4.22076 6.14963 
5.84549 0.931439 5.94694 
1.65079 1.15708 0.329019 
4.3909 0.73375 3.52583 
2.90707 0.277019 3.02915 
4.00349 0.833143 1.7024 
0.764285 2.88875 1.73801 
6.02414 1.91671 4.70504 
1.6978 5.59028 0.730583 
2.83633 0.493532 6.04195 
1.9663 4.58782 1.12293 
0.886163 4.85521 5.69673 
4.78499 0.772844 6.09862 
5.98928 2.77865 5.63778 
5.62978 5.52194 0.171622 
1.54961 6.16558 2.41254 
4.99186 1.56146 4.44996 
1.46949 0.859071 2.15616 
1.45407 1.56056 2.94668 
4.35427 2.69086 0.41707 
5.23202 1.69457 0.152236 
0.936929 1.00132 3.66867 
1.01634 3.6829 2.52473 
3.84065 0.62152 5.56361 
2.10038 1.75168 2.13702 
3.56375 1.65449 4.81064 
3.05012 1.2875 1.99389 
0.331924 5.58741 4.66199 
4.89994 2.44656 3.80968 
6.19809 2.96957 1.19134 
4.39828 4.33325 5.50753 
3.51821 4.325 1.04709 
2.19713 2.35875 3.07058 
1.01728 1.00109 1.2043 
2.26704 1.35388 5.76636 
5.72982 1.94626 1.09598 
1.42331 0.17455 4.09464 
2.81418 4.94881 1.77435 
3.28979 2.21511 2.82937 
3.8634 5.21404 5.25668 
1.1965 2.58785 2.69127 
3.3417 4.30927 5.05439 
3.93332 1.88688 1.99857 
2.03801 1.27576 3.94198 
0.831757 5.60639 1.42263 
2.75709 2.35155 5.66609 
5.78596 5.12587 4.28426 
0.0766433 4.63529 1.17396 
4.79114 4.85372 2.60273 
2.43387 6.22329 5.20248 
4.17572 3.40451 5.98337 
6.13752 0.266391 5.17743 
0.872927 1.3282 3.17848 
5.69151 2.2907 2.95028 
5.26785 2.51794 0.801578 
4.02264 0.263055 2.63639 
5.7849 3.09053 3.69566 
4.89008 2.49556 5.82383 
6.26719 2.15471 2.02211 
3.09572 4.76086 3.50536 
4.80882 5.2718 4.78702 
0.668141 3.72064 0.995904 
1.2051 4.73367 4.60467 
6.20302 0.174936 2.88538 
3.64695 5.36989 1.19935 
5.5585 1.77166 5.37562 
2.88376 5.61929 3.71931 
0.16603 2.97133 2.68183 
1.34421 3.10328 6.03484 
5.72225 5.23312 5.40394 
0.491718 2.80904 3.73093 
0.173709 5.58592 3.32188 
2.43568 0.399921 2.0844 
ITEM: TIMESTEP
600000
ITEM: NUMBER OF ATOMS
256
ITEM: BOX BOUNDS
0 6.3454
0 6.3454
0 6.3454
ITEM: ATOMS f_myave[1] f_myave[2] f_myave[3] 
0.765568 0.747924 4.73672 
2.6653 2.03989 1.24749 
1.57333 0.0798686 1.40754 
5.15698 2.04513 2.06357 
1.42959 3.9892 5.38104 
2.93643 5.36546 4.77581 
1.91094 4.4131 2.43861 
3.98428 3.43711 4.85789 
5.73899 4.91132 3.13395 
0.406114 1.15141 1.62601 
0.166225 0.137038 4.03722 
1.77928 0.368537 5.91336 
5.36697 6.24383 5.78682 
0.215255 3.78618 3.35706 
2.63254 3.8848 1.67989 
0.387965 1.95322 3.11457 
3.69227 3.7745 3.72614 
5.87244 2.02996 3.97116 
3.50792 5.642 2.83338 
1.72271 2.24894 5.55818 
1.57955 3.68228 1.568 
3.07753 4.59716 4.00231 
5.60358 3.03231 2.11079 
1.33318 2.88206 0.783431 
4.26782 4.39101 4.40821 
4.37602 3.60032 1.0715 
5.12264 2.84646 1.17489 
3.45577 3.3506 0.462646 
0.613392 0.154675 2.04108 
3.64353 2.63265 1.2563 
3.48228 5.95451 4.69708 
2.01131 4.88818 3.73448 
0.127561 4.5034 5.0017 
6.05639 3.81645 0.505642 
1.98138 5.67045 4.41831 
1.47437 3.2221 3.48251 
2.88298 2.81823 2.04084 
2.9865 2.00208 3.84011 
5.83662 0.944355 0.690247 
1.39264 1.69602 4.72946 
4.34428 2.42032 4.75959 
4.85558 5.01687 3.74556 
2.54835 5.90703 1.32288 
4.63026 0.900163 0.794113 
3.09129 0.56692 1.16746 
1.82495 2.68603 1.79189 
0.94992 1.80334 1.99427 
1.88749 5.24455 5.37701 
2.47097 3.06556 0.994179 
3.37863 6.20871 1.90644 
4.08289 1.69885 3.85689 
4.17739 1.68852 0.108537 
1.29388 5.75988 6.08661 
2.23404 0.27232 0.56888 
2.1326 2.17103 0.240308 
6.20326 0.0893672 0.0992655 
5.79411 1.24122 2.53006 
5.65621 3.90295 2.75083 
0.478688 1.73677 4.25848 
2.09247 3.34974 2.58359 
0.321005 4.5856 2.67543 
4.44742 6.18069 5.22466 
2.51646 0.233977 4.10896 
4.62085 5.42979 0.635123 
1.35715 2.17723 3.77783 