	
256 atoms
2 atom types	

0.0 6.2241 xlo xhi
0.0 6.2241 ylo yhi
0.0 6.2241 zlo zhi

#-15.16 0.0 0.0 xy xz yz

Masses

1 1
2 3

Atoms				

1	2	0	0	0
2	1	0.77802	0.77802	0
3	2	0.77802	0	0.77802
4	1	0	0.77802	0.77802
5	1	0	0	1.556
6	1	0.77802	0.77802	1.556
7	1	0.77802	0	2.3341
8	2	0	0.77802	2.3341
9	2	0	0	3.1121
10	1	0.77802	0.77802	3.1121
11	1	0.77802	0	3.8901
12	2	0	0.77802	3.8901
13	2	0	0	4.6681
14	1	0.77802	0.77802	4.6681
15	2	0.77802	0	5.4461
16	2	0	0.77802	5.4461
17	2	0	1.556	0
18	2	0.77802	2.3341	0
19	1	0.77802	1.556	0.77802
20	2	0	2.3341	0.77802
21	2	0	1.556	1.556
22	1	0.77802	2.3341	1.556
23	1	0.77802	1.556	2.3341
24	1	0	2.3341	2.3341
25	2	0	1.556	3.1121
26	1	0.77802	2.3341	3.1121
27	1	0.77802	1.556	3.8901
28	1	0	2.3341	3.8901
29	1	0	1.556	4.6681
30	2	0.77802	2.3341	4.6681
31	2	0.77802	1.556	5.4461
32	2	0	2.3341	5.4461
33	2	0	3.1121	0
34	2	0.77802	3.8901	0
35	1	0.77802	3.1121	0.77802
36	2	0	3.8901	0.77802
37	1	0	3.1121	1.556
38	1	0.77802	3.8901	1.556
39	2	0.77802	3.1121	2.3341
40	1	0	3.8901	2.3341
41	2	0	3.1121	3.1121
42	1	0.77802	3.8901	3.1121
43	1	0.77802	3.1121	3.8901
44	1	0	3.8901	3.8901
45	2	0	3.1121	4.6681
46	2	0.77802	3.8901	4.6681
47	2	0.77802	3.1121	5.4461
48	2	0	3.8901	5.4461
49	2	0	4.6681	0
50	2	0.77802	5.4461	0
51	1	0.77802	4.6681	0.77802
52	2	0	5.4461	0.77802
53	2	0	4.6681	1.556
54	2	0.77802	5.4461	1.556
55	1	0.77802	4.6681	2.3341
56	1	0	5.4461	2.3341
57	1	0	4.6681	3.1121
58	2	0.77802	5.4461	3.1121
59	1	0.77802	4.6681	3.8901
60	1	0	5.4461	3.8901
61	2	0	4.6681	4.6681
62	1	0.77802	5.4461	4.6681
63	2	0.77802	4.6681	5.4461
64	1	0	5.4461	5.4461
65	2	1.556	0	0
66	1	2.3341	0.77802	0
67	1	2.3341	0	0.77802
68	1	1.556	0.77802	0.77802
69	2	1.556	0	1.556
70	1	2.3341	0.77802	1.556
71	2	2.3341	0	2.3341
72	1	1.556	0.77802	2.3341
73	1	1.556	0	3.1121
74	1	2.3341	0.77802	3.1121
75	1	2.3341	0	3.8901
76	2	1.556	0.77802	3.8901
77	2	1.556	0	4.6681
78	1	2.3341	0.77802	4.6681
79	2	2.3341	0	5.4461
80	1	1.556	0.77802	5.4461
81	2	1.556	1.556	0
82	2	2.3341	2.3341	0
83	2	2.3341	1.556	0.77802
84	2	1.556	2.3341	0.77802
85	1	1.556	1.556	1.556
86	2	2.3341	2.3341	1.556
87	1	2.3341	1.556	2.3341
88	2	1.556	2.3341	2.3341
89	1	1.556	1.556	3.1121
90	1	2.3341	2.3341	3.1121
91	2	2.3341	1.556	3.8901
92	2	1.556	2.3341	3.8901
93	2	1.556	1.556	4.6681
94	2	2.3341	2.3341	4.6681
95	1	2.3341	1.556	5.4461
96	1	1.556	2.3341	5.4461
97	1	1.556	3.1121	0
98	1	2.3341	3.8901	0
99	1	2.3341	3.1121	0.77802
100	1	1.556	3.8901	0.77802
101	2	1.556	3.1121	1.556
102	2	2.3341	3.8901	1.556
103	2	2.3341	3.1121	2.3341
104	2	1.556	3.8901	2.3341
105	2	1.556	3.1121	3.1121
106	2	2.3341	3.8901	3.1121
107	2	2.3341	3.1121	3.8901
108	2	1.556	3.8901	3.8901
109	1	1.556	3.1121	4.6681
110	2	2.3341	3.8901	4.6681
111	2	2.3341	3.1121	5.4461
112	1	1.556	3.8901	5.4461
113	2	1.556	4.6681	0
114	2	2.3341	5.4461	0
115	1	2.3341	4.6681	0.77802
116	1	1.556	5.4461	0.77802
117	1	1.556	4.6681	1.556
118	1	2.3341	5.4461	1.556
119	2	2.3341	4.6681	2.3341
120	1	1.556	5.4461	2.3341
121	1	1.556	4.6681	3.1121
122	2	2.3341	5.4461	3.1121
123	1	2.3341	4.6681	3.8901
124	2	1.556	5.4461	3.8901
125	2	1.556	4.6681	4.6681
126	2	2.3341	5.4461	4.6681
127	2	2.3341	4.6681	5.4461
128	2	1.556	5.4461	5.4461
129	1	3.1121	0	0
130	1	3.8901	0.77802	0
131	1	3.8901	0	0.77802
132	2	3.1121	0.77802	0.77802
133	1	3.1121	0	1.556
134	1	3.8901	0.77802	1.556
135	2	3.8901	0	2.3341
136	1	3.1121	0.77802	2.3341
137	1	3.1121	0	3.1121
138	1	3.8901	0.77802	3.1121
139	1	3.8901	0	3.8901
140	2	3.1121	0.77802	3.8901
141	2	3.1121	0	4.6681
142	1	3.8901	0.77802	4.6681
143	2	3.8901	0	5.4461
144	1	3.1121	0.77802	5.4461
145	1	3.1121	1.556	0
146	1	3.8901	2.3341	0
147	1	3.8901	1.556	0.77802
148	2	3.1121	2.3341	0.77802
149	2	3.1121	1.556	1.556
150	1	3.8901	2.3341	1.556
151	1	3.8901	1.556	2.3341
152	1	3.1121	2.3341	2.3341
153	1	3.1121	1.556	3.1121
154	1	3.8901	2.3341	3.1121
155	1	3.8901	1.556	3.8901
156	1	3.1121	2.3341	3.8901
157	2	3.1121	1.556	4.6681
158	1	3.8901	2.3341	4.6681
159	2	3.8901	1.556	5.4461
160	2	3.1121	2.3341	5.4461
161	2	3.1121	3.1121	0
162	1	3.8901	3.8901	0
163	1	3.8901	3.1121	0.77802
164	1	3.1121	3.8901	0.77802
165	2	3.1121	3.1121	1.556
166	2	3.8901	3.8901	1.556
167	1	3.8901	3.1121	2.3341
168	2	3.1121	3.8901	2.3341
169	2	3.1121	3.1121	3.1121
170	1	3.8901	3.8901	3.1121
171	2	3.8901	3.1121	3.8901
172	2	3.1121	3.8901	3.8901
173	2	3.1121	3.1121	4.6681
174	2	3.8901	3.8901	4.6681
175	2	3.8901	3.1121	5.4461
176	2	3.1121	3.8901	5.4461
177	2	3.1121	4.6681	0
178	2	3.8901	5.4461	0
179	2	3.8901	4.6681	0.77802
180	1	3.1121	5.4461	0.77802
181	2	3.1121	4.6681	1.556
182	2	3.8901	5.4461	1.556
183	1	3.8901	4.6681	2.3341
184	1	3.1121	5.4461	2.3341
185	1	3.1121	4.6681	3.1121
186	1	3.8901	5.4461	3.1121
187	2	3.8901	4.6681	3.8901
188	2	3.1121	5.4461	3.8901
189	2	3.1121	4.6681	4.6681
190	2	3.8901	5.4461	4.6681
191	1	3.8901	4.6681	5.4461
192	2	3.1121	5.4461	5.4461
193	2	4.6681	0	0
194	1	5.4461	0.77802	0
195	1	5.4461	0	0.77802
196	2	4.6681	0.77802	0.77802
197	1	4.6681	0	1.556
198	1	5.4461	0.77802	1.556
199	2	5.4461	0	2.3341
200	1	4.6681	0.77802	2.3341
201	1	4.6681	0	3.1121
202	1	5.4461	0.77802	3.1121
203	2	5.4461	0	3.8901
204	1	4.6681	0.77802	3.8901
205	1	4.6681	0	4.6681
206	1	5.4461	0.77802	4.6681
207	1	5.4461	0	5.4461
208	2	4.6681	0.77802	5.4461
209	1	4.6681	1.556	0
210	1	5.4461	2.3341	0
211	1	5.4461	1.556	0.77802
212	2	4.6681	2.3341	0.77802
213	1	4.6681	1.556	1.556
214	2	5.4461	2.3341	1.556
215	2	5.4461	1.556	2.3341
216	2	4.6681	2.3341	2.3341
217	1	4.6681	1.556	3.1121
218	2	5.4461	2.3341	3.1121
219	2	5.4461	1.556	3.8901
220	1	4.6681	2.3341	3.8901
221	2	4.6681	1.556	4.6681
222	2	5.4461	2.3341	4.6681
223	2	5.4461	1.556	5.4461
224	2	4.6681	2.3341	5.4461
225	1	4.6681	3.1121	0
226	1	5.4461	3.8901	0
227	2	5.4461	3.1121	0.77802
228	2	4.6681	3.8901	0.77802
229	1	4.6681	3.1121	1.556
230	1	5.4461	3.8901	1.556
231	1	5.4461	3.1121	2.3341
232	2	4.6681	3.8901	2.3341
233	1	4.6681	3.1121	3.1121
234	1	5.4461	3.8901	3.1121
235	2	5.4461	3.1121	3.8901
236	2	4.6681	3.8901	3.8901
237	1	4.6681	3.1121	4.6681
238	2	5.4461	3.8901	4.6681
239	1	5.4461	3.1121	5.4461
240	2	4.6681	3.8901	5.4461
241	1	4.6681	4.6681	0
242	1	5.4461	5.4461	0
243	2	5.4461	4.6681	0.77802
244	1	4.6681	5.4461	0.77802
245	2	4.6681	4.6681	1.556
246	1	5.4461	5.4461	1.556
247	2	5.4461	4.6681	2.3341
248	1	4.6681	5.4461	2.3341
249	2	4.6681	4.6681	3.1121
250	1	5.4461	5.4461	3.1121
251	1	5.4461	4.6681	3.8901
252	1	4.6681	5.4461	3.8901
253	1	4.6681	4.6681	4.6681
254	1	5.4461	5.4461	4.6681
255	2	5.4461	4.6681	5.4461
256	2	4.6681	5.4461	5.4461
