ITEM: TIMESTEP
500000
ITEM: NUMBER OF ATOMS
256
ITEM: BOX BOUNDS
0 6.3454
0 6.3454
0 6.3454
ITEM: ATOMS f_myave[1] f_myave[2] f_myave[3] 
0.765357 0.755824 4.7372 
2.6609 2.04556 1.24836 
1.57933 0.082948 1.40633 
5.1511 2.04378 2.06209 
1.43592 3.99597 5.38779 
2.93573 5.3684 4.77317 
1.90641 4.41325 2.44655 
3.98493 3.43522 4.85801 
5.73773 4.91189 3.13342 
0.219989 1.15363 1.62178 
0.242685 0.185593 4.0372 
1.77571 0.368226 5.91383 
5.37232 6.24066 5.78059 
0.216443 3.78078 3.34973 
2.62655 3.89904 1.69793 
0.386603 1.95083 3.09968 
3.69383 3.76995 3.73135 
5.87176 2.03533 3.96883 
3.51091 5.63631 2.83049 
1.72026 2.24869 5.56384 
1.58028 3.68668 1.56693 
3.07837 4.59501 4.00318 
5.59836 3.03159 2.11033 
1.34468 2.88242 0.781815 
4.26412 4.39212 4.40772 
4.37134 3.59704 1.07566 
5.11999 2.84445 1.17364 
3.4552 3.3523 0.460572 
0.616028 0.209325 2.03679 
3.63876 2.63142 1.25746 
3.48123 5.81324 4.69234 
2.01443 4.88485 3.73189 
0.127607 4.50527 4.98284 
6.05348 3.81444 0.503877 
1.97785 5.66556 4.41707 
1.46277 3.225 3.48659 
2.88018 2.8078 2.05271 
2.98083 1.99433 3.84248 
5.82994 0.944643 0.683905 
1.38557 1.70024 4.73316 
4.34411 2.41821 4.75896 
4.85644 5.02024 3.74747 
2.55227 5.90899 1.32133 
4.63336 0.896023 0.788309 
3.09291 0.566124 1.16849 
1.82805 2.69129 1.7876 
0.941006 1.80053 1.99907 
1.88214 5.2443 5.37675 
2.48508 3.07986 1.00815 
3.38086 6.20777 1.90582 
4.08323 1.69664 3.85749 
4.1781 1.68609 0.109486 
1.28873 5.75753 6.08816 
2.23547 0.274247 0.567027 
2.13088 2.17048 0.24518 
6.19953 0.0883814 0.236529 
5.79709 1.24019 2.52774 
5.65336 3.90475 2.74816 
0.481569 1.73835 4.2363 
2.0891 3.35079 2.58466 
0.320822 4.58644 2.67787 
4.4472 6.18115 5.2237 
2.51358 0.230411 4.11097 
4.62097 5.43138 0.635606 
1.35874 2.17815 3.77705 
3.37059 5.99885 5.72783 
3.69961 0.734569 0.291166 
2.53033 5.74557 2.46187 
3.81976 2.42963 5.69535 
3.73785 4.61575 2.21254 
5.51899 6.07459 4.68514 
5.05553 3.56124 0.222513 
0.499569 1.0648 0.261759 
5.73115 4.73655 2.01454 
3.23552 6.10582 0.466135 
5.30278 4.49652 6.09489 
4.64573 1.1805 2.47418 
5.27905 1.07629 1.59968 
0.521523 1.00737 2.64369 
3.86875 2.73563 3.83811 
1.85004 0.751045 4.90847 
0.972496 4.56145 1.79257 
4.95102 3.08157 2.95718 
2.77403 5.11419 0.591097 
0.679124 3.94009 6.25545 
1.20978 1.28924 5.70531 
4.19561 0.785516 4.56764 
1.62507 3.83626 0.419469 
6.03469 3.84851 5.75944 
2.14001 1.05349 1.30509 
3.27838 0.954969 3.92819 
2.92304 3.04767 3.43143 
5.3841 2.62517 4.74977 
5.32093 4.35333 4.90335 
0.240998 1.43433 5.3794 
3.7404 5.22989 0.366704 
2.16315 3.16279 5.18904 
0.245466 5.72634 5.72494 
1.88574 4.80037 3.46834 
5.64748 4.14675 3.8669 
0.458949 2.0353 1.01882 
2.35745 5.83041 6.21579 
4.68845 4.03196 3.33888 
1.06992 5.50275 3.86676 
2.5971 1.33494 3.01255 
1.20287 4.27982 3.43056 
5.53157 5.92432 3.59426 
1.19087 5.2209 2.80009 
2.83353 3.60339 4.41433 
3.6821 5.14393 3.65456 
3.86639 5.37511 4.16795 
4.87465 3.45755 4.25227 
2.42853 4.0738 5.74846 
5.15746 0.696647 5.08347 
2.64956 4.05827 0.489307 
1.21934 6.10733 5.07021 
2.20262 2.71174 4.18714 
4.46501 1.54035 5.41214 
3.32206 1.47694 5.86396 
3.07903 3.85295 2.70467 
2.73456 1.29 0.423098 
0.709484 0.359126 5.82361 
5.1439 5.51892 1.53822 
5.44817 5.75351 2.51939 
3.88627 4.74783 3.27992 
0.514493 5.55412 2.23536 
1.14169 0.190196 0.448978 
2.45946 1.81028 4.78908 
3.63925 3.57131 1.83522 
5.34868 0.571176 3.98745 
1.72321 3.73737 4.36373 
4.64374 3.85618 2.22626 
0.665776 2.36632 5.56137 
5.17404 0.377536 2.9116 
6.01341 1.1269 4.57458 
4.52034 4.6361 1.45553 
4.4392 2.8344 1.97993 
2.4009 3.15151 5.44433 
3.20513 2.65232 4.71179 
4.39229 4.40697 0.340221 
6.10123 5.65654 1.18845 
5.07352 3.45199 5.39288 
3.88118 3.1612 2.83346 
3.65971 1.22973 2.9161 
0.126729 3.79868 1.92996 
1.84809 0.572865 3.13964 
4.59874 6.16582 4.15692 
5.87864 0.183351 1.84397 
4.8166 0.152896 1.90177 
0.998506 4.72514 0.626311 
0.32292 4.69451 3.89723 
0.268087 0.237784 1.04841 
2.30051 4.51026 4.75572 
1.207 2.8062 4.6785 
4.39958 2.15326 2.91444 
5.98027 3.54001 4.69799 
1.93405 5.88675 3.35244 
5.42327 3.84915 1.43355 
4.27106 6.21697 4.62636 
2.32072 3.92559 3.47347 
3.18615 3.33706 5.57015 
0.484238 5.63706 0.421267 
0.110776 2.59461 4.69482 
5.64463 2.69697 0.283016 
3.59661 1.54699 1.0159 
5.15174 1.464 3.38004 
3.23104 2.30133 0.294246 
2.9203 0.830398 4.99154 
1.06013 2.04417 0.135899 
6.19816 1.08306 3.51538 
4.53569 5.81572 3.12559 
4.60887 1.90483 1.13539 
2.79074 4.83038 2.94838 
4.71958 5.34448 5.88912 
5.41036 4.69934 0.811384 
0.65966 3.73998 4.32266 
4.13272 5.69401 1.07063 
1.77266 5.32122 1.83725 
2.876 5.02507 5.78333 
0.368948 2.92793 0.194051 
1.55888 1.9127 1.12447 
4.24562 5.60144 2.06667 
0.542233 3.40117 5.32736 
3.47557 4.22076 6.14963 
5.84549 0.931439 5.94694 
1.65079 1.15708 0.329019 
4.3909 0.73375 3.52583 
2.90707 0.277019 3.02915 
4.00349 0.833143 1.7024 
0.764285 2.88875 1.73801 
6.02414 1.91671 4.70504 
1.6978 5.59028 0.730583 
2.83633 0.493532 6.04195 
1.9663 4.58782 1.12293 
0.886163 4.85521 5.69673 
4.78499 0.772844 6.09862 
5.98928 2.77865 5.63778 
5.62978 5.52194 0.171622 
1.54961 6.16558 2.41254 
4.99186 1.56146 4.44996 
1.46949 0.859071 2.15616 
1.45407 1.56056 2.94668 
4.35427 2.69086 0.41707 
5.23202 1.69457 0.152236 
0.936929 1.00132 3.66867 
1.01634 3.6829 2.52473 
3.84065 0.62152 5.56361 
2.10038 1.75168 2.13702 
3.56375 1.65449 4.81064 
3.05012 1.2875 1.99389 
0.331924 5.58741 4.66199 
4.89994 2.44656 3.80968 
6.19809 2.96957 1.19134 
4.39828 4.33325 5.50753 
3.51821 4.325 1.04709 
2.19713 2.35875 3.07058 
1.01728 1.00109 1.2043 
2.26704 1.35388 5.76636 
5.72982 1.94626 1.09598 
1.42331 0.17455 4.09464 
2.81418 4.94881 1.77435 
3.28979 2.21511 2.82937 
3.8634 5.21404 5.25668 
1.1965 2.58785 2.69127 
3.3417 4.30927 5.05439 
3.93332 1.88688 1.99857 
2.03801 1.27576 3.94198 
0.831757 5.60639 1.42263 
2.75709 2.35155 5.66609 
5.78596 5.12587 4.28426 
0.0766433 4.63529 1.17396 
4.79114 4.85372 2.60273 
2.43387 6.22329 5.20248 
4.17572 3.40451 5.98337 
6.13752 0.266391 5.17743 
0.872927 1.3282 3.17848 
5.69151 2.2907 2.95028 
5.26785 2.51794 0.801578 
4.02264 0.263055 2.63639 
5.7849 3.09053 3.69566 
4.89008 2.49556 5.82383 
6.26719 2.15471 2.02211 
3.09572 4.76086 3.50536 
4.80882 5.2718 4.78702 
0.668141 3.72064 0.995904 
1.2051 4.73367 4.60467 
6.20302 0.174936 2.88538 
3.64695 5.36989 1.19935 
5.5585 1.77166 5.37562 
2.88376 5.61929 3.71931 
0.16603 2.97133 2.68183 
1.34421 3.10328 6.03484 
5.72225 5.23312 5.40394 
0.491718 2.80904 3.73093 
0.173709 5.58592 3.32188 
2.43568 0.399921 2.0844 
