  LAMMPS description
 
     400   atoms
     160   bonds
     296   angles
     304   dihedrals
 
      11   atom types
      13   bond types
      25   angle types
      25   dihedral types
 
       0   13.757000     xlo xhi
       0   16.634000     ylo yhi
       0   18.401740     zlo zhi
  0.0000000     -5.0306945      0.0000000     xy xz yz

  Masses

       1   12.010000
       2   12.010000
       3   12.010000
       4   12.010000
       5   16.000000
       6   16.000000
       7   12.010000
       8   12.010000
       9   12.010000
      10   1.0100000
      11   1.0100000

   Atoms

       1       1       1    0.000000    0.993000    3.067000    7.215000
       2       1       1    0.000000    0.560546    2.243213    6.130588
       3       1       1    0.000000   -0.684174    1.434781    6.318038
       4       1       1    0.000000   -1.382960    1.372910    7.554861
       5       1       1    0.000000   -0.920792    2.170075    8.709246
       6       1       1    0.000000    0.196904    3.048627    8.505307
       7       1       1    0.000000    0.054575    4.452681    8.938065
       8       1       1    0.000000    0.794431    5.373262    8.068602
       9       1       1    0.000000    1.315431    4.535577    6.935260
      10       1       1    0.000000    1.215705    5.081780    5.601576
      11       1       1    0.000000    0.742945    4.210033    4.495250
      12       1       1    0.000000    0.423234    2.834015    4.743081
      13       1       1    0.000000   -0.808963    2.290871    4.094185
      14       1       1    0.000000   12.269962    1.435380    5.075009
      15       1       1    0.000000   10.846442    1.279495    5.078530
      16       1       1    0.000000   10.138866    1.225522    6.369590
      17       1       1    0.000000   10.898358    1.317652    7.558525
      18       1       1    0.000000   10.416264    2.107772    8.699050
      19       1       1    0.000000   -2.154690    2.647252    9.390695
      20       1       1    0.000000   -2.237202    3.978769    9.853914
      21       1       1    0.000000   -1.138927    4.889267    9.583336
      22       1       1    0.000000   -1.631632    6.264194    9.509280
      23       1       1    0.000000   -0.969508    7.134113    8.586932
      24       1       1    0.000000    0.257662    6.690753    7.865167
      25       1       1    0.000000    0.151454    7.221775    6.480333
      26       1       1    0.000000    0.605891    6.427729    5.382440
      27       1       1    0.000000   -0.239152    6.353581    4.176056
      28       1       1    0.000000   -0.153030    5.002491    3.626334
      29       1       1    0.000000   12.481869    4.448413    2.943171
      30       1       1    0.000000   12.139935    3.033028    3.167119
      31       1       1    0.000000   10.655633    2.931976    3.219935
      32       1       1    0.000000   10.013223    2.067871    4.148832
      33       1       1    0.000000    8.798584    2.534513    4.882485
      34       1       1    0.000000    8.890816    2.004147    6.258966
      35       1       1    0.000000    8.452421    2.803118    7.346989
      36       1       1    0.000000    9.196653    2.819106    8.620498
      37       1       1    0.000000    9.112576    4.183105    9.168403
      38       1       1    0.000000   10.278642    4.755429    9.768308
      39       1       1    0.000000   10.638038    6.167444    9.576199
      40       1       1    0.000000    9.846821    6.910624    8.649356
      41       1       1    0.000000   10.513843    7.781106    7.667349
      42       1       1    0.000000   -1.823044    7.880460    7.638685
      43       1       1    0.000000   -1.135747    7.928898    6.364142
      44       1       1    0.000000   11.848672    7.878494    5.170370
      45       1       1    0.000000   12.325460    7.101075    4.033215
      46       1       1    0.000000   11.151300    6.549185    3.339787
      47       1       1    0.000000   11.235444    5.225516    2.845695
      48       1       1    0.000000   10.138018    4.301096    3.111198
      49       1       1    0.000000    8.942050    4.734499    3.760455
      50       1       1    0.000000    8.234795    3.822692    4.661028
      51       1       1    0.000000    7.733872    4.646923    5.800361
      52       1       1    0.000000    7.829658    4.126746    7.126627
      53       1       1    0.000000    8.293682    4.976679    8.245249
      54       1       1    0.000000    8.687501    6.320069    7.974710
      55       1       1    0.000000    8.568495    6.882986    6.611513
      56       1       1    0.000000    8.107060    6.068169    5.531875
      57       1       1    0.000000    8.827278    6.120550    4.228726
      58       1       1    0.000000    9.936593    6.998857    4.045615
      59       1       1    0.000000   10.399364    7.811818    5.191216
      60       1       1    0.000000    9.720237    7.780792    6.438369
      61       2       1    0.000000    3.129057   11.431824    1.983256
      62       2       1    0.000000    3.477584   10.653383    3.126702
      63       2       1    0.000000    4.712961    9.797577    3.047586
      64       2       1    0.000000    5.483259    9.668029    1.854718
      65       2       1    0.000000    5.088256   10.421860    0.650816
      66       2       1    0.000000    3.964465   11.303106    0.736922
      67       2       1    0.000000    4.133414   12.681274    0.238891
      68       2       1    0.000000    3.348801   13.654889    1.008210
      69       2       1    0.000000    2.792850   12.890954    2.161189
      70       2       1    0.000000    2.798859   13.498535    3.466081
      71       2       1    0.000000    3.205342   12.685761    4.641875
      72       2       1    0.000000    3.561012   11.308473    4.478275
      73       2       1    0.000000    4.743705   10.778641    5.215682
      74       2       1    0.000000    5.460389    9.851720    4.331375
      75       2       1    0.000000    6.886374    9.688614    4.419690
      76       2       1    0.000000    7.656002    9.584800    3.166459
      77       2       1    0.000000    6.962124    9.593318    1.929978
      78       2       1    0.000000    7.504975   10.335194    0.780397
      79       2       1    0.000000    6.357020   10.864342    0.020606
      80       2       1    0.000000    1.431171   12.159283   17.879030
      81       2       1    0.000000    0.324940   13.078879   18.025532
      82       2       1    0.000000    0.808604   14.461058   18.047460
      83       2       1    0.000000    5.131357   15.365921    0.496969
      84       2       1    0.000000    3.865912   14.980633    1.168207
      85       2       1    0.000000    3.900566   15.575432    2.526359
      86       2       1    0.000000    3.383468   14.853519    3.645069
      87       2       1    0.000000    4.135018   14.873456    4.914997
      88       2       1    0.000000    4.040484   13.530102    5.511072
      89       2       1    0.000000    5.127791   13.000227    6.267295
      90       2       1    0.000000    5.500545   11.577165    6.134632
      91       2       1    0.000000    6.980399   11.458317    6.188354
      92       2       1    0.000000    7.680270   10.517100    5.369196
      93       2       1    0.000000    8.933890   10.948047    4.668650
      94       2       1    0.000000    8.906740   10.363435    3.303464
      95       2       1    0.000000    9.417348   11.091838    2.194622
      96       2       1    0.000000    8.719504   11.054681    0.885380
      97       2       1    0.000000    8.831816   12.389028    0.262220
      98       2       1    0.000000    2.667282   12.936247   17.986532
      99       2       1    0.000000    2.296564   14.360878   18.066905
     100       2       1    0.000000    8.062107   15.152626    0.593460
     101       2       1    0.000000    7.335473   16.046010    1.508501
     102       2       1    0.000000    5.920313   16.146344    1.465940
     103       2       1    0.000000    5.158235   16.329473    2.688470
     104       2       1    0.000000    5.843239   16.386536    3.939694
     105       2       1    0.000000    5.309462   15.651341    5.093121
     106       2       1    0.000000    6.457928   15.077955    5.827718
     107       2       1    0.000000    6.361286   13.784243    6.392066
     108       2       1    0.000000    7.470795   12.846810    6.251322
     109       2       1    0.000000    8.690914   13.241391    5.627356
     110       2       1    0.000000    9.444056   12.271493    4.825278
     111       2       1    0.000000    9.983414   13.033589    3.661840
     112       2       1    0.000000   10.006473   12.439221    2.367259
     113       2       1    0.000000    9.598222   13.233521    1.186834
     114       2       1    0.000000    9.173454   14.584851    1.367575
     115       2       1    0.000000    9.200490   15.219470    2.700964
     116       2       1    0.000000    9.601203   14.461203    3.836591
     117       2       1    0.000000    8.821863   14.595728    5.091592
     118       2       1    0.000000    7.703918   15.476715    5.162794
     119       2       1    0.000000    7.298712   16.250020    3.976019
     120       2       1    0.000000    8.046422   16.127456    2.773102
     121       3       1    0.000000    7.461319   14.218960   11.251166
     122       3       1    0.000000    7.844463   15.080043   12.321392
     123       3       1    0.000000    9.014301   15.987967   12.122927
     124       3       1    0.000000    9.705097   16.063738   10.878544
     125       3       1    0.000000    9.286169   15.222702    9.733241
     126       3       1    0.000000    8.227760   14.282246    9.953891
     127       3       1    0.000000    8.414528   12.877930    9.519993
     128       3       1    0.000000    7.730827   11.932430   10.409958
     129       3       1    0.000000    7.197344   12.750638   11.542375
     130       3       1    0.000000    7.312543   12.222623   12.880819
     131       3       1    0.000000    7.747916   13.124678   13.975878
     132       3       1    0.000000    8.018346   14.503235   13.702783
     133       3       1    0.000000    9.206051   15.129348   14.348706
     134       3       1    0.000000    9.825007   16.029319   13.367757
     135       3       1    0.000000   -2.514101   16.241513   13.352743
     136       3       1    0.000000   -1.814547   16.311299   12.057738
     137       3       1    0.000000   -2.579284   16.158422   10.878067
     138       3       1    0.000000   -2.070653   15.376906    9.748193
     139       3       1    0.000000   10.531776   14.783840    9.054929
     140       3       1    0.000000   10.670623   13.451090    8.602591
     141       3       1    0.000000    9.612064   12.486052    8.848428
     142       3       1    0.000000   10.180891   11.146023    8.952147
     143       3       1    0.000000    9.574453   10.270217    9.907649
     144       3       1    0.000000    8.330728   10.646364   10.626132
     145       3       1    0.000000    8.461381   10.129740   12.014147
     146       3       1    0.000000    7.976609   10.907312   13.112915
     147       3       1    0.000000    8.816431   11.034790   14.324505
     148       3       1    0.000000    8.671444   12.388888   14.863706
     149       3       1    0.000000   -3.989266   13.011486   15.529614
     150       3       1    0.000000   -3.710527   14.438664   15.284798
     151       3       1    0.000000   -2.235594   14.614894   15.225715
     152       3       1    0.000000   -1.644467   15.489750   14.276234
     153       3       1    0.000000   -0.411177   15.079548   13.540238
     154       3       1    0.000000   -0.522755   15.605875   12.163274
     155       3       1    0.000000   -0.053967   14.819562   11.080425
     156       3       1    0.000000   -0.813255   14.739739    9.819380
     157       3       1    0.000000   -0.674803   13.377635    9.285431
     158       3       1    0.000000   -1.810651   12.739062    8.701291
     159       3       1    0.000000   -2.092218   11.308508    8.882894
     160       3       1    0.000000   -1.256741   10.609124    9.806785
     161       3       1    0.000000   -1.876326    9.717628   10.804032
     162       3       1    0.000000   10.466451    9.566570   10.851407
     163       3       1    0.000000    9.784889    9.492692   12.128018
     164       3       1    0.000000   -3.208354    9.589127   13.321553
     165       3       1    0.000000   -3.706278   10.356429   14.455821
     166       3       1    0.000000   -2.558757   10.973448   15.143709
     167       3       1    0.000000   -2.704868   12.300564   15.620860
     168       3       1    0.000000   -1.650162   13.279051   15.346351
     169       3       1    0.000000   -0.433983   12.900893   14.696630
     170       3       1    0.000000    0.218271   13.828713   13.774700
     171       3       1    0.000000    0.757768   13.023543   12.645031
     172       3       1    0.000000    0.619357   13.520462   11.316798
     173       3       1    0.000000    0.184423   12.641295   10.211509
     174       3       1    0.000000   -0.149721   11.288953   10.494853
     175       3       1    0.000000   -0.000405   10.763360   11.863338
     176       3       1    0.000000    0.447106   11.593683   12.930600
     177       3       1    0.000000   -0.257196   11.518301   14.239314
     178       3       1    0.000000   -1.328685   10.599900   14.422784
     179       3       1    0.000000   -1.775436    9.785190   13.280694
     180       3       1    0.000000   -1.102329    9.820587   12.036010
     181       4       1    0.000000    5.328075    5.900404   16.424613
     182       4       1    0.000000    4.944307    6.756761   15.351475
     183       4       1    0.000000    3.776239    7.667937   15.551979
     184       4       1    0.000000    3.091530    7.761906   16.800032
     185       4       1    0.000000    3.512760    6.926217   17.948181
     186       4       1    0.000000    4.565779    5.978768   17.722684
     187       4       1    0.000000    4.374008    4.577626   18.155739
     188       4       1    0.000000    5.055323    3.620046   17.274029
     189       4       1    0.000000    5.588383    4.430318   16.135840
     190       4       1    0.000000    5.461934    3.893927   14.799932
     191       4       1    0.000000    5.023328    4.790418   13.702260
     192       4       1    0.000000    4.761610    6.171021   13.973314
     193       4       1    0.000000    3.572118    6.795139   13.330684
     194       4       1    0.000000    2.961187    7.700462   14.311797
     195       4       1    0.000000    1.545018    7.917783   14.332003
     196       4       1    0.000000    0.851348    8.002572   15.628865
     197       4       1    0.000000    1.619358    7.862488   16.808865
     198       4       1    0.000000    1.105574    7.098699   17.951789
     199       4       1    0.000000    7.296240    6.504820    0.237829
     200       4       1    0.000000    7.152321    5.172301    0.688319
     201       4       1    0.000000    8.199620    4.200484    0.415685
     202       4       1    0.000000    7.635179    2.858949    0.322757
     203       4       1    0.000000    3.206069    1.970049   17.780900
     204       4       1    0.000000    4.451204    2.334131   17.061667
     205       4       1    0.000000    4.310625    1.807931   15.676963
     206       4       1    0.000000    4.791038    2.580255   14.572528
     207       4       1    0.000000    3.946159    2.700213   13.361994
     208       4       1    0.000000    4.094417    4.053374   12.819273
     209       4       1    0.000000    2.999665    4.674732   12.148129
     210       4       1    0.000000    2.727288    6.102171   12.400734
     211       4       1    0.000000    1.254785    6.280925   12.470442
     212       4       1    0.000000    0.671755    7.163552   13.416503
     213       4       1    0.000000   -0.559338    6.765027   14.158442
     214       4       1    0.000000   -0.442272    7.299846   15.532018
     215       4       1    0.000000   -0.916499    6.528650   16.623674
     216       4       1    0.000000   -0.158892    6.464258   17.889482
     217       4       1    0.000000    4.730028    5.100111    0.023945
     218       4       1    0.000000    5.873779    4.462340    0.598899
     219       4       1    0.000000    6.159136    3.033437    0.400102
     220       4       1    0.000000    0.284603    2.332222   17.889565
     221       4       1    0.000000    0.898249    1.440195   16.891660
     222       4       1    0.000000    2.308705    1.264758   16.844639
     223       4       1    0.000000    2.984607    1.171807   15.567268
     224       4       1    0.000000    2.213852    1.263247   14.376436
     225       4       1    0.000000    2.708771    2.021888   13.233773
     226       4       1    0.000000    1.560193    2.638938   12.543994
     227       4       1    0.000000    1.710338    3.965329   12.060248
     228       4       1    0.000000    0.661633    4.949500   12.347366
     229       4       1    0.000000   -0.555900    4.585128   13.000977
     230       4       1    0.000000   -1.197808    5.518974   13.927142
     231       4       1    0.000000   -1.738955    4.726391   15.064990
     232       4       1    0.000000   -1.596138    5.231922   16.391620
     233       4       1    0.000000   -1.161668    4.358424   17.501973
     234       4       1    0.000000   -0.836104    3.001737   17.219241
     235       4       1    0.000000   -0.989841    2.466440   15.851960
     236       4       1    0.000000   -1.434964    3.294281   14.781466
     237       4       1    0.000000   -0.733871    3.207013   13.470299
     238       4       1    0.000000    0.332293    2.283112   13.280864
     239       4       1    0.000000    0.781348    1.474686   14.424321
     240       4       1    0.000000    0.113184    1.525528   15.670279
     241       1       2   -0.030000    1.924529    1.886917    6.801995
     242       1       3    0.000000    2.034497    0.749432    7.840057
     243       1       4   -0.115000    1.912678    0.921596    9.224518
     244       1       4   -0.115000    2.660476    0.061329   10.026283
     245       1       4   -0.115000    2.999030   15.441388    9.554193
     246       1       4   -0.115000    2.574186   15.085717    8.302177
     247       1       5   -0.500000    3.197707    4.920221    3.159208
     248       1       6   -0.170000    5.262891    5.040104    3.758496
     249       1       4   -0.115000    2.041226   16.050559    7.451328
     250       1       7   -0.120000    3.192430    2.320502    5.997449
     251       1       7   -0.120000    3.085117    2.328844    4.468163
     252       1       7   -0.120000    4.283372    2.963474    3.750291
     253       1       8    0.700000    4.131743    4.440701    3.767961
     254       1       9   -0.180000    5.168728    6.396009    3.526074
     255       1      10    0.115000    1.570417    1.842977    9.650602
     256       1      10    0.115000    2.875724    0.242788   11.046677
     257       1      10    0.115000    3.418379   14.701214   10.196838
     258       1      10    0.115000    2.672370   14.057041    8.028158
     259       1      10    0.115000    1.786245   15.769104    6.443521
     260       1      11    0.060000    3.559231    3.287208    6.358489
     261       1      11    0.060000    3.984420    1.610951    6.198044
     262       1      11    0.060000    2.171130    2.819756    4.137417
     263       1      11    0.060000    2.981673    1.308323    4.145123
     264       1      11    0.060000    5.266210    2.700746    4.149319
     265       1      11    0.060000    4.233943    2.643419    2.708376
     266       1      11    0.060000    4.501958    6.621268    2.708921
     267       1      11    0.060000    4.865261    6.892846    4.436683
     268       1      11    0.060000    6.117279    6.791369    3.197174
     269       2       2   -0.030000    2.075672   10.429396    2.464811
     270       2       3    0.000000    1.901484    9.236980    1.476097
     271       2       4   -0.115000    2.135091    9.326350    0.094283
     272       2       4   -0.115000   -3.592163    8.443185   17.669805
     273       2       4   -0.115000   -3.957801    7.206577   18.158017
     274       2       4   -0.115000    1.438610    6.905396    1.039619
     275       2       5   -0.500000    0.780890   13.026232    6.184435
     276       2       6   -0.170000   -1.251737   13.306567    5.542025
     277       2       4   -0.115000    1.899108    7.908995    1.900512
     278       2       7   -0.120000    0.932958   11.265763    3.166116
     279       2       7   -0.120000   -0.165598   10.628762    4.007814
     280       2       7   -0.120000   -0.448531   11.208678    5.412222
     281       2       8    0.700000   -0.149234   12.664199    5.485737
     282       2       9   -0.180000   -1.184381   14.658107    5.782260
     283       2      10    0.115000   -2.471765   10.209353   18.056508
     284       2      10    0.115000   -3.702357    8.547653   16.622752
     285       2      10    0.115000   -4.323643    6.439367   17.511193
     286       2      10    0.115000    1.339147    5.874334    1.307492
     287       2      10    0.115000    2.146668    7.651373    2.917277
     288       2      11    0.060000    1.448959   11.925980    3.861683
     289       2      11    0.060000    0.481894   11.969160    2.472184
     290       2      11    0.060000    0.220013    9.624011    4.105871
     291       2      11    0.060000   12.619294   10.607635    3.513574
     292       2      11    0.060000   -1.497237   11.044894    5.688698
     293       2      11    0.060000    0.140033   10.725851    6.198498
     294       2      11    0.060000   -0.548658   14.908988    6.608088
     295       2      11    0.060000   -0.926542   15.143095    4.857431
     296       2      11    0.060000   11.615333   15.034603    6.107311
     297       3       2   -0.030000    6.431368   15.281034   11.701992
     298       3       3    0.000000    6.293972   16.514873   10.733042
     299       3       4   -0.115000    6.538670   16.450726    9.344896
     300       3       4   -0.115000    5.934281    0.766405    8.509998
     301       3       4   -0.115000    5.524049    1.989860    8.996071
     302       3       4   -0.115000    5.851037    2.246231   10.303909
     303       3       5   -0.500000    5.146573   12.770831   15.455957
     304       3       6   -0.170000    3.163681   12.441619   14.741969
     305       3       4   -0.115000    6.259981    1.216143   11.169144
     306       3       7   -0.120000    5.311228   14.518303   12.512443
     307       3       7   -0.120000    4.180686   15.179933   13.292653
     308       3       7   -0.120000    3.910164   14.591500   14.690091
     309       3       8    0.700000    4.232745   13.138329   14.744043
     310       3       9   -0.180000    3.358197   11.107242   15.027712
     311       3      10    0.115000    6.948539   15.573695    8.875334
     312       3      10    0.115000    5.917223    0.728172    7.447742
     313       3      10    0.115000    5.199070    2.768843    8.325383
     314       3      10    0.115000    5.748734    3.273089   10.589855
     315       3      10    0.115000    6.468042    1.489755   12.191534
     316       3      11    0.060000    5.857403   13.972376   13.280975
     317       3      11    0.060000    4.886418   13.717028   11.908745
     318       3      11    0.060000    4.516882   16.201859   13.372572
     319       3      11    0.060000    3.216043   15.161205   12.783821
     320       3      11    0.060000    2.867829   14.740253   14.980250
     321       3      11    0.060000    4.494441   15.080201   15.472731
     322       3      11    0.060000    3.960858   10.945478   15.908849
     323       3      11    0.060000    3.768952   10.597467   14.163698
     324       3      11    0.060000    2.407179   10.683778   15.305325
     325       4       2   -0.030000    6.357181    6.961334   15.975625
     326       4       3    0.000000    6.484973    8.192828   16.944983
     327       4       4   -0.115000    6.221186    8.123605   18.328713
     328       4       4   -0.115000   11.863938    9.051917    0.777517
     329       4       4   -0.115000   12.238291   10.289071    0.290818
     330       4       4   -0.115000    6.918758   10.550040   17.378376
     331       4       5   -0.500000    7.623132    4.436505   12.273724
     332       4       6   -0.170000    9.631336    4.132282   12.935563
     333       4       4   -0.115000    6.515427    9.525697   16.507045
     334       4       7   -0.120000    7.490674    6.194773   15.191507
     335       4       7   -0.120000    8.608217    6.860032   14.401560
     336       4       7   -0.120000    8.868072    6.275498   12.997543
     337       4       8    0.700000    8.555844    4.818803   12.954197
     338       4       9   -0.180000    9.447641    2.797250   12.651886
     339       4      10    0.115000   10.842800    7.237917    0.378312
     340       4      10    0.115000   11.897139    8.961028    1.835876
     341       4      10    0.115000   12.545549   11.085673    0.937038
     342       4      10    0.115000    7.029421   11.578952   17.101995
     343       4      10    0.115000    6.315240    9.798365   15.483080
     344       4      11    0.060000    6.963518    5.608759   14.441438
     345       4      11    0.060000    7.933954    5.430265   15.824667
     346       4      11    0.060000    8.279108    7.881222   14.340220
     347       4      11    0.060000    9.567569    6.831951   14.910454
     348       4      11    0.060000    9.907071    6.427437   12.694725
     349       4      11    0.060000    8.273895    6.760132   12.219620
     350       4      11    0.060000    8.800932    2.633394   11.806632
     351       4      11    0.060000    9.084991    2.290011   13.538471
     352       4      11    0.060000   -3.368997    2.379258   12.329512
     353       0      10    0.115000    2.826997    8.402100    5.369034
     354       0      10    0.115000    3.097738    3.664703    9.360961
     355       5       4   -0.115000    4.656910    6.498313    7.768206
     356       5       4   -0.115000    4.798583    5.900120    9.017248
     357       5       4   -0.115000    5.551414    6.489324   10.036050
     358       5       4   -0.115000    6.081392    7.763624    9.880821
     359       5       4   -0.115000    5.932741    8.417417    8.645949
     360       5       4   -0.115000    5.245044    7.754427    7.613323
     361       5      10    0.115000    5.691935    5.990501   10.971916
     362       5      10    0.115000    6.608408    8.180499   10.715440
     363       5      10    0.115000    6.352618    9.401946    8.482658
     364       5      10    0.115000    5.147429    8.214458    6.666606
     365       0      10    0.115000    5.682743    8.991105   13.073367
     366       0      10    0.115000    5.395340   13.690872    9.149573
     367       6       4   -0.115000    3.794111   10.948514   10.737438
     368       6       4   -0.115000    3.637681   11.531242    9.486204
     369       6       4   -0.115000    2.857104   10.957377    8.479510
     370       6       4   -0.115000    2.352815    9.676690    8.631490
     371       6       4   -0.115000    2.509909    9.034620    9.871012
     372       6       4   -0.115000    3.203192    9.699044   10.903418
     373       6      10    0.115000    2.687639   11.461316    7.546815
     374       6      10    0.115000    1.811472    9.274037    7.799695
     375       6      10    0.115000    2.078106    8.056575   10.029598
     376       6      10    0.115000    3.292384    9.276974   11.870252
     377       0      10    0.115000    0.979634   16.458590    3.956793
     378       0      10    0.115000   -4.101824   11.972847   18.272523
     379       7       4   -0.115000   13.135672   14.811564    1.526027
     380       7       4   -0.115000   13.037111   14.224377    0.269213
     381       7       4   -0.115000    7.232132   14.791420   17.655246
     382       7       4   -0.115000    6.694994   16.064212   17.790292
     383       7       4   -0.115000   11.847611    0.081350    0.625901
     384       7       4   -0.115000   12.502348   16.043953    1.674694
     385       7      10    0.115000    7.110252   14.295621   16.717170
     386       7      10    0.115000    6.172329   16.477066   16.949806
     387       7      10    0.115000   11.395332    1.050854    0.786813
     388       7      10    0.115000   12.515645   16.470362    2.640874
     389       0      10    0.115000    7.115747    0.707990   14.597016
     390       0      10    0.115000   12.449399    5.435318    0.154749
     391       8       4   -0.115000    8.977183    2.655318   16.947662
     392       8       4   -0.115000   -4.599398    3.277646   18.176617
     393       8       4   -0.115000    1.185916    2.706745    0.801190
     394       8       4   -0.115000    1.650881    1.407805    0.696885
     395       8       4   -0.115000   -3.525477    0.749630   17.864384
     396       8       4   -0.115000   -4.197510    1.398744   16.809897
     397       8      10    0.115000    1.381649    3.239425    1.705607
     398       8      10    0.115000    2.162341    1.022608    1.555541
     399       8      10    0.115000   -3.127076   16.391265   17.711707
     400       8      10    0.115000   -4.291229    0.945903   15.856161

   Bonds

       1       1     244     243
       2       1     245     244
       3       1     246     245
       4       1     249     246
       5       1     272     271