********************************************************************************
*                       GENERAL UTILITY LATTICE PROGRAM                        *
*                                 Julian Gale                                  *
*                      Nanochemistry Research Institute                        *
*                           Department of Chemistry                            *
*                    Curtin University, Western Australia                      *
********************************************************************************
* Version = 4.1.0 * Last modified =  21st June 2013                            *
********************************************************************************
*  optimise     - perform optimisation run                                     *
*  phonon       - calculate phonons for final geometry                         *
*  thermal      - calculate thermal conductivity for final geometry            *
*  nomodcoord   - do not mod input coordinates                                 *
*  molecule     - molecule option activated, Coulomb subtract within molecule  *
*  compare      - compare initial and final structures                         *
*  broaden_dos  - broaden density of states curves                             *
********************************************************************************

  Job Started  at 11:32.21 15th July       2013                               

  Number of CPUs =     1


  Total number of configurations input =   1

********************************************************************************
*  Input for Configuration =   1                                               *
********************************************************************************

  Formula = C312O8H72Cl8                                                

  Number of irreducible atoms/shells =     400


  Total number atoms/shells =     400

  Dimensionality = 3               :  Bulk   



  Cartesian lattice vectors (Angstroms) :

       13.757000    0.000000    0.000000
        0.000000   16.634000    0.000000
       -5.030695    0.000000   18.401740

  Cell parameters (Angstroms/Degrees):

  a =      13.7570    alpha =  90.0000
  b =      16.6340    beta  = 105.2900
  c =      19.0770    gamma =  90.0000

  Initial cell volume =        4210.942670 Angs**3

  Temperature of configuration = 0.1000E+06 K 

  Pressure of configuration =         0.000 GPa 

  Fractional coordinates of asymmetric unit :

--------------------------------------------------------------------------------
   No.  Atomic       x           y          z         Charge      Occupancy
        Label      (Frac)      (Frac)     (Frac)        (e)         (Frac)  
--------------------------------------------------------------------------------
      1 C1    c    0.215559    0.184381    0.392082     0.00000    1.000000    
      2 C1    c    0.165164 *  0.126488 *  0.323448 *   0.00000    1.000000    
      3 C1    c    0.083390 *  0.072743 *  0.333990 *   0.00000    1.000000    
      4 C1    c    0.059361 *  0.064386 *  0.399473 *   0.00000    1.000000    
      5 C1    c    0.105190 *  0.116689 *  0.461587 *   0.00000    1.000000    
      6 C1    c    0.172979 *  0.175243 *  0.455935 *   0.00000    1.000000    
      7 C1    c    0.164479 *  0.254479 *  0.484574 *   0.00000    1.000000    
      8 C1    c    0.187314 *  0.313635 *  0.435502 *   0.00000    1.000000    
      9 C1    c    0.209709 *  0.271492 *  0.375291 *   0.00000    1.000000    
     10 C1    c    0.176470 *  0.303114 *  0.306656 *   0.00000    1.000000    
     11 C1    c    0.129688 *  0.250631 *  0.244325 *   0.00000    1.000000    
     12 C1    c    0.120267 *  0.169232 *  0.253943 *   0.00000    1.000000    
     13 C1    c    0.026815 *  0.129975 *  0.218240 *   0.00000    1.000000    
     14 C1    c    0.003988 *  0.071300 *  0.267529 *   0.00000    1.000000    
     15 C1    c   -0.095308 *  0.056631 *  0.266931 *   0.00000    1.000000    
     16 C1    c   -0.120465 *  0.045690 *  0.335294 *   0.00000    1.000000    
     17 C1    c   -0.044903 *  0.050619 *  0.399799 *   0.00000    1.000000    
     18 C1    c   -0.063795 *  0.092822 *  0.461641 *   0.00000    1.000000    
     19 C1    c    0.028026 *  0.134003 *  0.499246 *   0.00000    1.000000    
     20 C1    c    0.023156 *  0.209330 *  0.529461 *   0.00000    1.000000    
     21 C1    c    0.092542 *  0.271492 *  0.522016 *   0.00000    1.000000    
     22 C1    c    0.040335 *  0.347902 *  0.511636 *   0.00000    1.000000    
     23 C1    c    0.062358 *  0.404232 *  0.464521 *   0.00000    1.000000    
     24 C1    c    0.137837 *  0.387459 *  0.425829 *   0.00000    1.000000    
     25 C1    c    0.104720 *  0.420644 *  0.354151 *   0.00000    1.000000    
     26 C1    c    0.122358 *  0.378923 *  0.295244 *   0.00000    1.000000    
     27 C1    c    0.044388 *  0.374233 *  0.227533 *   0.00000    1.000000    
     28 C1    c    0.049238 *  0.295659 *  0.196666 *   0.00000    1.000000    
     29 C1    c   -0.039397 *  0.256523 *  0.159822 *   0.00000    1.000000    
     30 C1    c   -0.050548 *  0.172177 *  0.171071 *   0.00000    1.000000    
     31 C1    c   -0.154747 *  0.157569 *  0.171179 *   0.00000    1.000000    
     32 C1    c   -0.176499 *  0.100757 *  0.218240 *   0.00000    1.000000    
     33 C1    c   -0.251852 *  0.117651 *  0.256878 *   0.00000    1.000000    
     34 C1    c   -0.217479 *  0.084225 *  0.329208 *   0.00000    1.000000    
     35 C1    c   -0.235653 *  0.124444 *  0.387844 *   0.00000    1.000000    
     36 C1    c   -0.156896 *  0.129434 *  0.455718 *   0.00000    1.000000    
     37 C1    c   -0.162156 *  0.207827 *  0.486856 *   0.00000    1.000000    
     38 C1    c   -0.073752 *  0.247565 *  0.523266 *   0.00000    1.000000    
     39 C1    c   -0.063228 *  0.333053 *  0.512289 *   0.00000    1.000000    
     40 C1    c   -0.141233 *  0.375436 *  0.465554 *   0.00000    1.000000    
     41 C1    c   -0.118101 *  0.434712 *  0.416102 *   0.00000    1.000000    
     42 C1    c   -0.018437 *  0.448900 *  0.415722 *   0.00000    1.000000    
     43 C1    c    0.007864 *  0.458879 *  0.347304 *   0.00000    1.000000    
     44 C1    c   -0.066714 *  0.454310 *  0.282310 *   0.00000    1.000000    
     45 C1    c   -0.048185 *  0.411747 *  0.221066 *   0.00000    1.000000    
     46 C1    c   -0.140786 *  0.370867 *  0.182917 *   0.00000    1.000000    
     47 C1    c   -0.136233 *  0.295840 *  0.153029 *   0.00000    1.000000    
     48 C1    c   -0.207040 *  0.233738 *  0.160365 *   0.00000    1.000000    
     49 C1    c   -0.279797 *  0.250150 *  0.197155 *   0.00000    1.000000    
     50 C1    c   -0.302790 *  0.190994 *  0.246390 *   0.00000    1.000000    
     51 C1    c   -0.321781 *  0.233438 *  0.307960 *   0.00000    1.000000    
     52 C1    c   -0.288435 *  0.200733 *  0.377084 *   0.00000    1.000000    
     53 C1    c   -0.243208 *  0.252495 *  0.438545 *   0.00000    1.000000    
     54 C1    c   -0.232519 *  0.333774 *  0.427623 *   0.00000    1.000000    
     55 C1    c   -0.266899 *  0.368041 *  0.355075 *   0.00000    1.000000    
     56 C1    c   -0.310551 *  0.318685 *  0.296928 *   0.00000    1.000000    
     57 C1    c   -0.284766 *  0.329025 *  0.228294 *   0.00000    1.000000    
     58 C1    c   -0.216628 *  0.388061 *  0.221012 *   0.00000    1.000000    
     59 C1    c   -0.170548 *  0.439642 *  0.283017 *   0.00000    1.000000    
     60 C1    c   -0.195926 *  0.429842 *  0.348391 *   0.00000    1.000000    
     61 C1    c    0.284432 *  0.684381 *  0.107925 *   0.00000    1.000000    
     62 C1    c    0.334827 *  0.626488 *  0.176559 *   0.00000    1.000000    
     63 C1    c    0.416601 *  0.572743 *  0.166017 *   0.00000    1.000000    
     64 C1    c    0.440631 *  0.564386 *  0.100534 *   0.00000    1.000000    
     65 C1    c    0.394801 *  0.616689 *  0.038420 *   0.00000    1.000000    
     66 C1    c    0.327013 *  0.675243 *  0.044072 *   0.00000    1.000000    
     67 C1    c    0.335512 *  0.754479 *  0.015433 *   0.00000    1.000000    
     68 C1    c    0.312677 *  0.813635 *  0.064505 *   0.00000    1.000000    
     69 C1    c    0.290282 *  0.771492 *  0.124716 *   0.00000    1.000000    
     70 C1    c    0.323522 *  0.803114 *  0.193351 *   0.00000    1.000000    
     71 C1    c    0.370303 *  0.750631 *  0.255682 *   0.00000    1.000000    
     72 C1    c    0.379725 *  0.669232 *  0.246064 *   0.00000    1.000000    
     73 C1    c    0.473176 *  0.629975 *  0.281767 *   0.00000    1.000000    
     74 C1    c    0.496004 *  0.571300 *  0.232478 *   0.00000    1.000000    
     75 C1    c    0.595299 *  0.556631 *  0.233076 *   0.00000    1.000000    
     76 C1    c    0.620456 *  0.545690 *  0.164713 *   0.00000    1.000000    
     77 C1    c    0.544895 *  0.550619 *  0.100208 *   0.00000    1.000000    
     78 C1    c    0.563786 *  0.592822 *  0.038366 *   0.00000    1.000000    
     79 C1    c    0.471965 *  0.634003 *  0.000761 *   0.00000    1.000000    
     80 C1    c    0.476836 *  0.709330 * -0.029454 *   0.00000    1.000000    
     81 C1    c    0.407449 *  0.771492 * -0.022009 *   0.00000    1.000000    
     82 C1    c    0.459657 *  0.847902 * -0.011629 *   0.00000    1.000000    
     83 C1    c    0.437633 *  0.904232 *  0.035486 *   0.00000    1.000000    
     84 C1    c    0.362155 *  0.887459 *  0.074178 *   0.00000    1.000000    
     85 C1    c    0.395272 *  0.920644 *  0.145856 *   0.00000    1.000000    
     86 C1    c    0.377633 *  0.878923 *  0.204763 *   0.00000    1.000000    
     87 C1    c    0.455603 *  0.874233 *  0.272474 *   0.00000    1.000000    
     88 C1    c    0.450753 *  0.795659 *  0.303341 *   0.00000    1.000000    
     89 C1    c    0.539389 *  0.756523 *  0.340185 *   0.00000    1.000000    
     90 C1    c    0.550540 *  0.672177 *  0.328936 *   0.00000    1.000000    
     91 C1    c    0.654738 *  0.657569 *  0.328828 *   0.00000    1.000000    
     92 C1    c    0.676491 *  0.600757 *  0.281767 *   0.00000    1.000000    
     93 C1    c    0.751843 *  0.617651 *  0.243129 *   0.00000    1.000000    
     94 C1    c    0.717470 *  0.584225 *  0.170799 *   0.00000    1.000000    
     95 C1    c    0.735644 *  0.624444 *  0.112163 *   0.00000    1.000000    
     96 C1    c    0.656888 *  0.629434 *  0.044289 *   0.00000    1.000000    
     97 C1    c    0.662147 *  0.707827 *  0.013151 *   0.00000    1.000000    
     98 C1    c    0.573744 *  0.747565 * -0.023259 *   0.00000    1.000000    
     99 C1    c    0.563220 *  0.833053 * -0.012281 *   0.00000    1.000000    
    100 C1    c    0.641224 *  0.875436 *  0.034453 *   0.00000    1.000000    
    101 C1    c    0.618093 *  0.934712 *  0.083905 *   0.00000    1.000000    
    102 C1    c    0.518428 *  0.948900 *  0.084286 *   0.00000    1.000000    
    103 C1    c    0.492128 *  0.958879 *  0.152703 *   0.00000    1.000000    
    104 C1    c    0.566705 *  0.954310 *  0.217697 *   0.00000    1.000000    
    105 C1    c    0.548177 *  0.911747 *  0.278941 *   0.00000    1.000000    
    106 C1    c    0.640778 *  0.870867 *  0.317090 *   0.00000    1.000000    
    107 C1    c    0.636225 *  0.795840 *  0.346978 *   0.00000    1.000000    
    108 C1    c    0.707032 *  0.733738 *  0.339642 *   0.00000    1.000000    
    109 C1    c    0.779789 *  0.750150 *  0.302852 *   0.00000    1.000000    
    110 C1    c    0.802782 *  0.690994 *  0.253617 *   0.00000    1.000000    
    111 C1    c    0.821773 *  0.733438 *  0.192047 *   0.00000    1.000000    
    112 C1    c    0.788427 *  0.700733 *  0.122923 *   0.00000    1.000000    
    113 C1    c    0.743199 *  0.752495 *  0.061462 *   0.00000    1.000000    
    114 C1    c    0.732510 *  0.833774 *  0.072384 *   0.00000    1.000000    
    115 C1    c    0.766890 *  0.868041 *  0.144932 *   0.00000    1.000000    
    116 C1    c    0.810542 *  0.818685 *  0.203079 *   0.00000    1.000000    
    117 C1    c    0.784757 *  0.829025 *  0.271713 *   0.00000    1.000000    
    118 C1    c    0.716620 *  0.888061 *  0.278995 *   0.00000    1.000000    
    119 C1    c    0.670540 *  0.939642 *  0.216990 *   0.00000    1.000000    
    120 C1    c    0.695917 *  0.929842 *  0.151616 *   0.00000    1.000000    
    121 C1    c    0.784424 *  0.815619 *  0.607932 *   0.00000    1.000000    
    122 C1    c    0.834819 *  0.873512 *  0.676566 *   0.00000    1.000000    
    123 C1    c    0.916593 *  0.927257 *  0.666024 *   0.00000    1.000000    
    124 C1    c    0.940622 *  0.935614 *  0.600541 *   0.00000    1.000000    
    125 C1    c    0.894793 *  0.883311 *  0.538427 *   0.00000    1.000000    
    126 C1    c    0.827004 *  0.824757 *  0.544079 *   0.00000    1.000000    
    127 C1    c    0.835504 *  0.745521 *  0.515440 *   0.00000    1.000000    
    128 C1    c    0.812669 *  0.686365 *  0.564512 *   0.00000    1.000000    
    129 C1    c    0.790274 *  0.728508 *  0.624724 *   0.00000    1.000000    
    130 C1    c    0.823513 *  0.696886 *  0.693358 *   0.00000    1.000000    
    131 C1    c    0.870295 *  0.749369 *  0.755689 *   0.00000    1.000000    
    132 C1    c    0.879716 *  0.830768 *  0.746071 *   0.00000    1.000000    
    133 C1    c    0.973168 *  0.870025 *  0.781774 *   0.00000    1.000000    
    134 C1    c    0.995995 *  0.928700 *  0.732485 *   0.00000    1.000000    
    135 C1    c    1.095291 *  0.943369 *  0.733083 *   0.00000    1.000000    
    136 C1    c    1.120448 *  0.954310 *  0.664720 *   0.00000    1.000000    
    137 C1    c    1.044886 *  0.949381 *  0.600215 *   0.00000    1.000000    
    138 C1    c    1.063778 *  0.907178 *  0.538373 *   0.00000    1.000000    
    139 C1    c    0.971957 *  0.865997 *  0.500768 *   0.00000    1.000000    
    140 C1    c    0.976827 *  0.790670 *  0.470553 *   0.00000    1.000000    
    141 C1    c    0.907441 *  0.728508 *  0.477998 *   0.00000    1.000000    
    142 C1    c    0.959648 *  0.652098 *  0.488378 *   0.00000    1.000000    
    143 C1    c    0.937625 *  0.595768 *  0.535493 *   0.00000    1.000000    
    144 C1    c    0.862146 *  0.612541 *  0.574185 *   0.00000    1.000000    
    145 C1    c    0.895263 *  0.579356 *  0.645863 *   0.00000    1.000000    
    146 C1    c    0.877625 *  0.621077 *  0.704770 *   0.00000    1.000000    
    147 C1    c    0.955595 *  0.625767 *  0.772481 *   0.00000    1.000000    
    148 C1    c    0.950745 *  0.704341 *  0.803348 *   0.00000    1.000000    
    149 C1    c    1.039380 *  0.743477 *  0.840192 *   0.00000    1.000000    
    150 C1    c    1.050531 *  0.827823 *  0.828943 *   0.00000    1.000000    
    151 C1    c    1.154730 *  0.842431 *  0.828835 *   0.00000    1.000000    
    152 C1    c    1.176482 *  0.899243 *  0.781774 *   0.00000    1.000000    
    153 C1    c    1.251835 *  0.882349 *  0.743136 *   0.00000    1.000000    
    154 C1    c    1.217462 *  0.915775 *  0.670806 *   0.00000    1.000000    
    155 C1    c    1.235636 *  0.875556 *  0.612170 *   0.00000    1.000000    
    156 C1    c    1.156879 *  0.870566 *  0.544296 *   0.00000    1.000000    
    157 C1    c    1.162139 *  0.792173 *  0.513158 *   0.00000    1.000000    
    158 C1    c    1.073735 *  0.752435 *  0.476748 *   0.00000    1.000000    
    159 C1    c    1.063211 *  0.666947 *  0.487726 *   0.00000    1.000000    
    160 C1    c    1.141216 *  0.624564 *  0.534460 *   0.00000    1.000000    
    161 C1    c    1.118084 *  0.565288 *  0.583912 *   0.00000    1.000000    
    162 C1    c    1.018420 *  0.551100 *  0.584293 *   0.00000    1.000000    
    163 C1    c    0.992119 *  0.541121 *  0.652710 *   0.00000    1.000000    
    164 C1    c    1.066697 *  0.545690 *  0.717704 *   0.00000    1.000000    
    165 C1    c    1.048168 *  0.588253 *  0.778948 *   0.00000    1.000000    
    166 C1    c    1.140769 *  0.629133 *  0.817097 *   0.00000    1.000000    
    167 C1    c    1.136216 *  0.704160 *  0.846985 *   0.00000    1.000000    
    168 C1    c    1.207023 *  0.766262 *  0.839649 *   0.00000    1.000000    
    169 C1    c    1.279780 *  0.749850 *  0.802859 *   0.00000    1.000000    
    170 C1    c    1.302773 *  0.809006 *  0.753624 *   0.00000    1.000000    
    171 C1    c    1.321764 *  0.766562 *  0.692054 *   0.00000    1.000000    
    172 C1    c    1.288418 *  0.799267 *  0.622930 *   0.00000    1.000000    
    173 C1    c    1.243191 *  0.747505 *  0.561469 *   0.00000    1.000000    
    174 C1    c    1.232502 *  0.666226 *  0.572392 *   0.00000    1.000000    
    175 C1    c    1.266882 *  0.631959 *  0.644939 *   0.00000    1.000000    
    176 C1    c    1.310533 *  0.681315 *  0.703086 *   0.00000    1.000000    
    177 C1    c    1.284749 *  0.670975 *  0.771720 *   0.00000    1.000000    
    178 C1    c    1.216611 *  0.611939 *  0.779002 *   0.00000    1.000000    
    179 C1    c    1.170531 *  0.560358 *  0.716997 *   0.00000    1.000000    
    180 C1    c    1.195909 *  0.570158 *  0.651623 *   0.00000    1.000000    
    181 C1    c    0.715551 *  0.315619 *  0.892090 *   0.00000    1.000000    
    182 C1    c    0.665156 *  0.373512 *  0.823455 *   0.00000    1.000000    
    183 C1    c    0.583382 *  0.427257 *  0.833997 *   0.00000    1.000000    
    184 C1    c    0.559352 *  0.435614 *  0.899480 *   0.00000    1.000000    
    185 C1    c    0.605182 *  0.383311 *  0.961594 *   0.00000    1.000000    
    186 C1    c    0.672970 *  0.324757 *  0.955942 *   0.00000    1.000000    
    187 C1    c    0.664471 *  0.245521 *  0.984581 *   0.00000    1.000000    
    188 C1    c    0.687306 *  0.186365 *  0.935509 *   0.00000    1.000000    
    189 C1    c    0.709701 *  0.228508 *  0.875298 *   0.00000    1.000000    
    190 C1    c    0.676461 *  0.196886 *  0.806663 *   0.00000    1.000000    
    191 C1    c    0.629680 *  0.249369 *  0.744332 *   0.00000    1.000000    
    192 C1    c    0.620258 *  0.330768 *  0.753950 *   0.00000    1.000000    
    193 C1    c    0.526807 *  0.370025 *  0.718247 *   0.00000    1.000000    
    194 C1    c    0.503979 *  0.428700 *  0.767536 *   0.00000    1.000000    
    195 C1    c    0.404684 *  0.443369 *  0.766938 *   0.00000    1.000000    
    196 C1    c    0.379527 *  0.454310 *  0.835301 *   0.00000    1.000000    
    197 C1    c    0.455088 *  0.449381 *  0.899806 *   0.00000    1.000000    
    198 C1    c    0.436197 *  0.407178 *  0.961648 *   0.00000    1.000000    
    199 C1    c    0.528018 *  0.365997 *  0.999253 *   0.00000    1.000000    
    200 C1    c    0.523147 *  0.290670 *  1.029468 *   0.00000    1.000000    
    201 C1    c    0.592534 *  0.228508 *  1.022023 *   0.00000    1.000000    
    202 C1    c    0.540326 *  0.152098 *  1.011643 *   0.00000    1.000000    
    203 C1    c    0.562350 *  0.095768 *  0.964528 *   0.00000    1.000000    
    204 C1    c    0.637828 *  0.112541 *  0.925836 *   0.00000    1.000000    
    205 C1    c    0.604711 *  0.079356 *  0.854158 *   0.00000    1.000000    
    206 C1    c    0.622350 *  0.121077 *  0.795251 *   0.00000    1.000000    
    207 C1    c    0.544380 *  0.125767 *  0.727540 *   0.00000    1.000000    
    208 C1    c    0.549230 *  0.204341 *  0.696673 *   0.00000    1.000000    
    209 C1    c    0.460594 *  0.243477 *  0.659829 *   0.00000    1.000000    
    210 C1    c    0.449443 *  0.327823 *  0.671078 *   0.00000    1.000000    
    211 C1    c    0.345245 *  0.342431 *  0.671187 *   0.00000    1.000000    
    212 C1    c    0.323492 *  0.399243 *  0.718247 *   0.00000    1.000000    
    213 C1    c    0.248140 *  0.382349 *  0.756885 *   0.00000    1.000000    
    214 C1    c    0.282513 *  0.415775 *  0.829215 *   0.00000    1.000000    
    215 C1    c    0.264339 *  0.375556 *  0.887851 *   0.00000    1.000000    
    216 C1    c    0.343095 *  0.370566 *  0.955725 *   0.00000    1.000000    
    217 C1    c    0.337836 *  0.292173 *  0.986863 *   0.00000    1.000000    
    218 C1    c    0.426239 *  0.252435 *  1.023273 *   0.00000    1.000000    
    219 C1    c    0.436763 *  0.166947 *  1.012296 *   0.00000    1.000000    
    220 C1    c    0.358759 *  0.124564 *  0.965561 *   0.00000    1.000000    
    221 C1    c    0.381890 *  0.065288 *  0.916109 *   0.00000    1.000000    
    222 C1    c    0.481555 *  0.051100 *  0.915729 *   0.00000    1.000000    
    223 C1    c    0.507855 *  0.041121 *  0.847311 *   0.00000    1.000000    
    224 C1    c    0.433278 *  0.045690 *  0.782317 *   0.00000    1.000000    
    225 C1    c    0.451806 *  0.088253 *  0.721073 *   0.00000    1.000000    
    226 C1    c    0.359205 *  0.129133 *  0.682925 *   0.00000    1.000000    
    227 C1    c    0.363758 *  0.204160 *  0.653036 *   0.00000    1.000000    
    228 C1    c    0.292951 *  0.266262 *  0.660372 *   0.00000    1.000000    
    229 C1    c    0.220194 *  0.249850 *  0.697162 *   0.00000    1.000000    
    230 C1    c    0.197201 *  0.309006 *  0.746397 *   0.00000    1.000000    
    231 C1    c    0.178210 *  0.266562 *  0.807967 *   0.00000    1.000000    
    232 C1    c    0.211556 *  0.299267 *  0.877091 *   0.00000    1.000000    
    233 C1    c    0.256784 *  0.247505 *  0.938553 *   0.00000    1.000000    
    234 C1    c    0.267473 *  0.166226 *  0.927630 *   0.00000    1.000000    
    235 C1    c    0.233093 *  0.131959 *  0.855082 *   0.00000    1.000000    
    236 C1    c    0.189441 *  0.181315 *  0.796935 *   0.00000    1.000000    
    237 C1    c    0.215226 *  0.170975 *  0.728301 *   0.00000    1.000000    
    238 C1    c    0.283363 *  0.111939 *  0.721019 *   0.00000    1.000000    
    239 C1    c    0.329443 *  0.060358 *  0.783024 *   0.00000    1.000000    
    240 C1    c    0.304066 *  0.070158 *  0.848398 *   0.00000    1.000000    
    241 C7    c    0.275900 *  0.121678 *  0.363879 *  -0.03000    1.000000    
    242 C3    c    0.310337 *  0.049297 *  0.410939 *   0.00000    1.000000    
    243 C2    c    0.358595 *  0.059036 *  0.484465 *  -0.11500    1.000000    
    244 C2    c    0.393803 * -0.007515 *  0.528265 *  -0.11500    1.000000    
    245 C2    c    0.381802 * -0.083804 *  0.498431 *  -0.11500    1.000000    
    246 C2    c    0.334721 * -0.094145 *  0.425340 *  -0.11500    1.000000    
    247 O1    c    0.301640 *  0.250090 *  0.167702 *  -0.50000    1.000000    
    248 O2    c    0.466795 *  0.279127 *  0.194547 *  -0.17000    1.000000    
    249 C2    c    0.298397 * -0.028075 *  0.381866 *  -0.11500    1.000000    
    250 C5    c    0.351060 *  0.153361 *  0.323719 *  -0.12000    1.000000    
    251 C5    c    0.353426 *  0.105627 *  0.255845 *  -0.12000    1.000000    
    252 C5    c    0.423266 *  0.145786 *  0.215251 *  -0.12000    1.000000    
    253 C4    c    0.388716 *  0.229470 *  0.190145 *   0.70000    1.000000    
    254 C6    c    0.441468 *  0.362330 *  0.173788 *  -0.18000    1.000000    
    255 H1    c    0.366860 *  0.116088 *  0.504681 *   0.11500    1.000000    
    256 H1    c    0.431708 *  0.001503 *  0.581630 *   0.11500    1.000000    
    257 H1    c    0.410820 * -0.131478 *  0.529678 *   0.11500    1.000000    
    258 H1    c    0.322370 * -0.148311 *  0.402299 *   0.11500    1.000000    
    259 H1    c    0.260922 * -0.041722 *  0.328882 *   0.11500    1.000000    
    260 H2    c    0.332234 *  0.210713 *  0.309210 *   0.06000    1.000000    
    261 H2    c    0.425284 *  0.154082 *  0.361705 *   0.06000    1.000000    
    262 H2    c    0.280888 *  0.102381 *  0.218892 *   0.06000    1.000000    
    263 H2    c    0.377063 *  0.048515 *  0.270790 *   0.06000    1.000000    
    264 H2    c    0.492884 *  0.149092 *  0.246607 *   0.06000    1.000000    
    265 H2    c    0.425221 *  0.115607 *  0.169114 *   0.06000    1.000000    
    266 H2    c    0.391978 *  0.364915 *  0.127705 *   0.06000    1.000000    
    267 H2    c    0.410207 *  0.387880 *  0.214328 *   0.06000    1.000000    
    268 H2    c    0.510012 *  0.386317 *  0.170799 *   0.06000    1.000000    
    269 C7    c    0.224091 *  0.621678 *  0.136128 *  -0.03000    1.000000    
    270 C3    c    0.189654 *  0.549297 *  0.089068 *   0.00000    1.000000    
    271 C2    c    0.141396 *  0.559036 *  0.015542 *  -0.11500    1.000000    
    272 C2    c    0.106189 *  0.492485 * -0.028258 *  -0.11500    1.000000    
    273 C2    c    0.118189 *  0.416196 *  0.001576 *  -0.11500    1.000000    
    274 C2    c    0.165270 *  0.405855 *  0.074667 *  -0.11500    1.000000    
    275 O1    c    0.198352 *  0.750090 *  0.332306 *  -0.50000    1.000000    
    276 O2    c    0.033196 *  0.779127 *  0.305460 *  -0.17000    1.000000    
    277 C2    c    0.201594 *  0.471925 *  0.118141 *  -0.11500    1.000000    
    278 C5    c    0.148931 *  0.653361 *  0.176288 *  -0.12000    1.000000    
    279 C5    c    0.146566 *  0.605627 *  0.244162 *  -0.12000    1.000000    
    280 C5    c    0.076726 *  0.645786 *  0.284756 *  -0.12000    1.000000    
    281 C4    c    0.111276 *  0.729470 *  0.309862 *   0.70000    1.000000    
    282 C6    c    0.058524 *  0.862330 *  0.326219 *  -0.18000    1.000000    
    283 H1    c    0.133131 *  0.616088 * -0.004673 *   0.11500    1.000000    
    284 H1    c    0.068284 *  0.501503 * -0.081623 *   0.11500    1.000000    
    285 H1    c    0.089172 *  0.368522 * -0.029671 *   0.11500    1.000000    
    286 H1    c    0.177622 *  0.351689 *  0.097708 *   0.11500    1.000000    
    287 H1    c    0.239069 *  0.458278 *  0.171125 *   0.11500    1.000000    
    288 H2    c    0.167758 *  0.710713 *  0.190797 *   0.06000    1.000000    
    289 H2    c    0.074708 *  0.654082 *  0.138302 *   0.06000    1.000000    
    290 H2    c    0.219103 *  0.602381 *  0.281115 *   0.06000    1.000000    
    291 H2    c    0.122928 *  0.548515 *  0.229217 *   0.06000    1.000000    
    292 H2    c    0.007107 *  0.649092 *  0.253400 *   0.06000    1.000000    
    293 H2    c    0.074771 *  0.615607 *  0.330893 *   0.06000    1.000000    
    294 H2    c    0.108013 *  0.864915 *  0.372302 *   0.06000    1.000000    
    295 H2    c    0.089785 *  0.887880 *  0.285680 *   0.06000    1.000000    
    296 H2    c   -0.010021 *  0.886317 *  0.329208 *   0.06000    1.000000    
    297 C7    c    0.724083 *  0.878322 *  0.636135 *  -0.03000    1.000000    
    298 C3    c    0.689646 *  0.950703 *  0.589075 *   0.00000    1.000000    
    299 C2    c    0.641388 *  0.940964 *  0.515549 *  -0.11500    1.000000    
    300 C2    c    0.606180 *  1.007515 *  0.471749 *  -0.11500    1.000000    
    301 C2    c    0.618181 *  1.083804 *  0.501583 *  -0.11500    1.000000    
    302 C2    c    0.665262 *  1.094145 *  0.574674 *  -0.11500    1.000000    
    303 O1    c    0.698343 *  0.749910 *  0.832313 *  -0.50000    1.000000    
    304 O2    c    0.533187 *  0.720873 *  0.805467 *  -0.17000    1.000000    
    305 C2    c    0.701586 *  1.028075 *  0.618148 *  -0.11500    1.000000    
    306 C5    c    0.648923 *  0.846639 *  0.676295 *  -0.12000    1.000000    
    307 C5    c    0.646557 *  0.894373 *  0.744169 *  -0.12000    1.000000    
    308 C5    c    0.576717 *  0.854214 *  0.784763 *  -0.12000    1.000000    
    309 C4    c    0.611267 *  0.770530 *  0.809869 *   0.70000    1.000000    
    310 C6    c    0.558515 *  0.637670 *  0.826226 *  -0.18000    1.000000    
    311 H1    c    0.633123 *  0.883912 *  0.495334 *   0.11500    1.000000    
    312 H1    c    0.568275 *  0.998497 *  0.418384 *   0.11500    1.000000    
    313 H1    c    0.589163 *  1.131478 *  0.470336 *   0.11500    1.000000    
    314 H1    c    0.677613 *  1.148311 *  0.597715 *   0.11500    1.000000    
    315 H1    c    0.739061 *  1.041722 *  0.671132 *   0.11500    1.000000    
    316 H2    c    0.667749 *  0.789287 *  0.690804 *   0.06000    1.000000    
    317 H2    c    0.574699 *  0.845918 *  0.638309 *   0.06000    1.000000    
    318 H2    c    0.719095 *  0.897619 *  0.781122 *   0.06000    1.000000    
    319 H2    c    0.622920 *  0.951485 *  0.729225 *   0.06000    1.000000    
    320 H2    c    0.507099 *  0.850908 *  0.753407 *   0.06000    1.000000    
    321 H2    c    0.574762 *  0.884393 *  0.830900 *   0.06000    1.000000    
    322 H2    c    0.608005 *  0.635085 *  0.872309 *   0.06000    1.000000    
    323 H2    c    0.589776 *  0.612120 *  0.785687 *   0.06000    1.000000    
    324 H2    c    0.489971 *  0.613683 *  0.829215 *   0.06000    1.000000    
    325 C7    c    0.775892 *  0.378322 *  0.863886 *  -0.03000    1.000000    
    326 C3    c    0.810329 *  0.450703 *  0.910946 *   0.00000    1.000000    
    327 C2    c    0.858587 *  0.440964 *  0.984472 *  -0.11500    1.000000    
    328 C2    c    0.893794 *  0.507515 *  1.028272 *  -0.11500    1.000000    
    329 C2    c    0.881794 *  0.583804 *  0.998438 *  -0.11500    1.000000    
    330 C2    c    0.834712 *  0.594145 *  0.925347 *  -0.11500    1.000000    
    331 O1    c    0.801631 *  0.249910 *  0.667709 *  -0.50000    1.000000    
    332 O2    c    0.966787 *  0.220873 *  0.694554 *  -0.17000    1.000000    
    333 C2    c    0.798389 *  0.528075 *  0.881873 *  -0.11500    1.000000    
    334 C5    c    0.851052 *  0.346639 *  0.823726 *  -0.12000    1.000000    
    335 C5    c    0.853417 *  0.394373 *  0.755852 *  -0.12000    1.000000    
    336 C5    c    0.923257 *  0.354214 *  0.715258 *  -0.12000    1.000000    
    337 C4    c    0.888707 *  0.270530 *  0.690152 *   0.70000    1.000000    
    338 C6    c    0.941459 *  0.137670 *  0.673795 *  -0.18000    1.000000    
    339 H1    c    0.866852 *  0.383912 *  1.004688 *   0.11500    1.000000    
    340 H1    c    0.931699 *  0.498497 *  1.081637 *   0.11500    1.000000    
    341 H1    c    0.910811 *  0.631478 *  1.029685 *   0.11500    1.000000    
    342 H1    c    0.822361 *  0.648311 *  0.902306 *   0.11500    1.000000    
    343 H1    c    0.760914 *  0.541722 *  0.828889 *   0.11500    1.000000    
    344 H2    c    0.832225 *  0.289287 *  0.809217 *   0.06000    1.000000    
    345 H2    c    0.925275 *  0.345918 *  0.861712 *   0.06000    1.000000    
    346 H2    c    0.780880 *  0.397619 *  0.718899 *   0.06000    1.000000    
    347 H2    c    0.877055 *  0.451485 *  0.770797 *   0.06000    1.000000    
    348 H2    c    0.992875 *  0.350908 *  0.746614 *   0.06000    1.000000    
    349 H2    c    0.925212 *  0.384393 *  0.669122 *   0.06000    1.000000    
    350 H2    c    0.891970 *  0.135085 *  0.627712 *   0.06000    1.000000    
    351 H2    c    0.910198 *  0.112120 *  0.714335 *   0.06000    1.000000    
    352 H2    c    1.010004 *  0.113683 *  0.670806 *   0.06000    1.000000    
    353 Cl    c    0.413867 *  0.392990 *  0.356923 *   0.11500    1.000000    
    354 Cl    c    0.469344 *  0.269869 *  0.486965 *   0.11500    1.000000    
    355 C2    c    0.515983 *  0.410304 *  0.431427 *  -0.11500    1.000000    
    356 C2    c    0.540437 *  0.356799 *  0.488758 *  -0.11500    1.000000    
    357 C2    c    0.621268 *  0.371288 *  0.547992 *  -0.11500    1.000000    
    358 C2    c    0.677320 *  0.440964 *  0.550002 *  -0.11500    1.000000    
    359 C2    c    0.652212 *  0.495070 *  0.492671 *  -0.11500    1.000000    
    360 C2    c    0.572260 *  0.479560 *  0.433057 *  -0.11500    1.000000    
    361 H1    c    0.637502 *  0.336299 *  0.590596 *   0.11500    1.000000    
    362 H1    c    0.730878 *  0.452387 *  0.593694 *   0.11500    1.000000    
    363 H1    c    0.694216 *  0.549898 *  0.495823 *   0.11500    1.000000    
    364 H1    c    0.551400 *  0.520320 *  0.390126 *   0.11500    1.000000    
    365 Cl    c    0.586116 *  0.607010 *  0.643091 *   0.11500    1.000000    
    366 Cl    c    0.530639 *  0.730131 *  0.513049 *   0.11500    1.000000    
    367 C2    c    0.484000 *  0.589696 *  0.568588 *  -0.11500    1.000000    
    368 C2    c    0.459546 *  0.643201 *  0.511256 *  -0.11500    1.000000    
    369 C2    c    0.378715 *  0.628712 *  0.452022 *  -0.11500    1.000000    
    370 C2    c    0.322663 *  0.559036 *  0.450012 *  -0.11500    1.000000    
    371 C2    c    0.347771 *  0.504930 *  0.507343 *  -0.11500    1.000000    
    372 C2    c    0.427723 *  0.520440 *  0.566957 *  -0.11500    1.000000    
    373 H1    c    0.362481 *  0.663701 *  0.409418 *   0.11500    1.000000    
    374 H1    c    0.269105 *  0.547613 *  0.406320 *   0.11500    1.000000    
    375 H1    c    0.305767 *  0.450102 *  0.504191 *   0.11500    1.000000    
    376 H1    c    0.448583 *  0.479680 *  0.609888 *   0.11500    1.000000    
    377 Cl    c    1.086124 *  0.892990 *  0.143084 *   0.11500    1.000000    
    378 Cl    c    1.030647 *  0.769869 *  0.013042 *   0.11500    1.000000    
    379 C2    c    0.984009 *  0.910304 *  0.068580 *  -0.11500    1.000000    
    380 C2    c    0.959554 *  0.856799 *  0.011249 *  -0.11500    1.000000    
    381 C2    c    0.878724 *  0.871288 * -0.047985 *  -0.11500    1.000000    
    382 C2    c    0.822671 *  0.940964 * -0.049995 *  -0.11500    1.000000    
    383 C2    c    0.847780 *  0.995070 *  0.007336 *  -0.11500    1.000000    
    384 C2    c    0.927732 *  0.979560 *  0.066950 *  -0.11500    1.000000    
    385 H1    c    0.862490 *  0.836299 * -0.090589 *   0.11500    1.000000    
    386 H1    c    0.769113 *  0.952387 * -0.093687 *   0.11500    1.000000    
    387 H1    c    0.805775 *  1.049898 *  0.004184 *   0.11500    1.000000    
    388 H1    c    0.948592 *  1.020320 *  0.109881 *   0.11500    1.000000    
    389 Cl    c   -0.086141 *  0.107010 *  0.856930 *   0.11500    1.000000    
    390 Cl    c   -0.030664 *  0.230131 *  0.986972 *   0.11500    1.000000    
    391 C2    c    0.015974 *  0.089696 *  0.931434 *  -0.11500    1.000000    
    392 C2    c    0.040429 *  0.143201 *  0.988765 *  -0.11500    1.000000    
    393 C2    c    0.121259 *  0.128712 *  1.047999 *  -0.11500    1.000000    
    394 C2    c    0.177312 *  0.059036 *  1.050009 *  -0.11500    1.000000    
    395 C2    c    0.152203 *  0.004930 *  0.992678 *  -0.11500    1.000000    
    396 C2    c    0.072251 *  0.020440 *  0.933064 *  -0.11500    1.000000    
    397 H1    c    0.137493 *  0.163701 *  1.090603 *   0.11500    1.000000    
    398 H1    c    0.230870 *  0.047613 *  1.093701 *   0.11500    1.000000    
    399 H1    c    0.194208 * -0.049898 *  0.995830 *   0.11500    1.000000    
    400 H1    c    0.051391 * -0.020320 *  0.890133 *   0.11500    1.000000    
--------------------------------------------------------------------------------



  Molecule list generated from bond lengths :

  Total number of molecules =     8

--------------------------------------------------------------------------------
Molecule No./:  Atoms
Periodicity  :  
--------------------------------------------------------------------------------
     1  0    : C1   c     1 C1   c     2 C1   c     3 C1   c     4 C1   c     5
             : C1   c     6 C1   c     7 C1   c     8 C1   c     9 C1   c    10
             : C1   c    11 C1   c    12 C1   c    13 C1   c    14 C1   c    15
             : C1   c    16 C1   c    17 C1   c    18 C1   c    19 C1   c    20
             : C1   c    21 C1   c    22 C1   c    23 C1   c    24 C1   c    25
             : C1   c    26 C1   c    27 C1   c    28 C1   c    29 C1   c    30
             : C1   c    31 C1   c    32 C1   c    33 C1   c    34 C1   c    35
             : C1   c    36 C1   c    37 C1   c    38 C1   c    39 C1   c    40
             : C1   c    41 C1   c    42 C1   c    43 C1   c    44 C1   c    45
             : C1   c    46 C1   c    47 C1   c    48 C1   c    49 C1   c    50
             : C1   c    51 C1   c    52 C1   c    53 C1   c    54 C1   c    55
             : C1   c    56 C1   c    57 C1   c    58 C1   c    59 C1   c    60
             : C7   c   241 C3   c   242 C2   c   243 C2   c   244 C2   c   245
             : C2   c   246 O1   c   247 O2   c   248 C2   c   249 C5   c   250
             : C5   c   251 C5   c   252 C4   c   253 C6   c   254 H1   c   255
             : H1   c   256 H1   c   257 H1   c   258 H1   c   259 H2   c   260
             : H2   c   261 H2   c   262 H2   c   263 H2   c   264 H2   c   265
             : H2   c   266 H2   c   267 H2   c   268
     2  0    : C1   c    61 C1   c    62 C1   c    63 C1   c    64 C1   c    65
             : C1   c    66 C1   c    67 C1   c    68 C1   c    69 C1   c    70
             : C1   c    71 C1   c    72 C1   c    73 C1   c    74 C1   c    75
             : C1   c    76 C1   c    77 C1   c    78 C1   c    79 C1   c    80
             : C1   c    81 C1   c    82 C1   c    83 C1   c    84 C1   c    85
             : C1   c    86 C1   c    87 C1   c    88 C1   c    89 C1   c    90
             : C1   c    91 C1   c    92 C1   c    93 C1   c    94 C1   c    95
             : C1   c    96 C1   c    97 C1   c    98 C1   c    99 C1   c   100
             : C1   c   101 C1   c   102 C1   c   103 C1   c   104 C1   c   105
             : C1   c   106 C1   c   107 C1   c   108 C1   c   109 C1   c   110
             : C1   c   111 C1   c   112 C1   c   113 C1   c   114 C1   c   115
             : C1   c   116 C1   c   117 C1   c   118 C1   c   119 C1   c   120
             : C7   c   269 C3   c   270 C2   c   271 C2   c   272 C2   c   273
             : C2   c   274 O1   c   275 O2   c   276 C2   c   277 C5   c   278
             : C5   c   279 C5   c   280 C4   c   281 C6   c   282 H1   c   283
             : H1   c   284 H1   c   285 H1   c   286 H1   c   287 H2   c   288
             : H2   c   289 H2   c   290 H2   c   291 H2   c   292 H2   c   293
             : H2   c   294 H2   c   295 H2   c   296
     3  0    : C1   c   121 C1   c   122 C1   c   123 C1   c   124 C1   c   125
             : C1   c   126 C1   c   127 C1   c   128 C1   c   129 C1   c   130
             : C1   c   131 C1   c   132 C1   c   133 C1   c   134 C1   c   135
             : C1   c   136 C1   c   137 C1   c   138 C1   c   139 C1   c   140
             : C1   c   141 C1   c   142 C1   c   143 C1   c   144 C1   c   145
             : C1   c   146 C1   c   147 C1   c   148 C1   c   149 C1   c   150
             : C1   c   151 C1   c   152 C1   c   153 C1   c   154 C1   c   155
             : C1   c   156 C1   c   157 C1   c   158 C1   c   159 C1   c   160
             : C1   c   161 C1   c   162 C1   c   163 C1   c   164 C1   c   165
             : C1   c   166 C1   c   167 C1   c   168 C1   c   169 C1   c   170
             : C1   c   171 C1   c   172 C1   c   173 C1   c   174 C1   c   175
             : C1   c   176 C1   c   177 C1   c   178 C1   c   179 C1   c   180
             : C7   c   297 C3   c   298 C2   c   299 C2   c   300 C2   c   301
             : C2   c   302 O1   c   303 O2   c   304 C2   c   305 C5   c   306
             : C5   c   307 C5   c   308 C4   c   309 C6   c   310 H1   c   311
             : H1   c   312 H1   c   313 H1   c   314 H1   c   315 H2   c   316
             : H2   c   317 H2   c   318 H2   c   319 H2   c   320 H2   c   321
             : H2   c   322 H2   c   323 H2   c   324
     4  0    : C1   c   181 C1   c   182 C1   c   183 C1   c   184 C1   c   185
             : C1   c   186 C1   c   187 C1   c   188 C1   c   189 C1   c   190
             : C1   c   191 C1   c   192 C1   c   193 C1   c   194 C1   c   195
             : C1   c   196 C1   c   197 C1   c   198 C1   c   199 C1   c   200
             : C1   c   201 C1   c   202 C1   c   203 C1   c   204 C1   c   205
             : C1   c   206 C1   c   207 C1   c   208 C1   c   209 C1   c   210
             : C1   c   211 C1   c   212 C1   c   213 C1   c   214 C1   c   215
             : C1   c   216 C1   c   217 C1   c   218 C1   c   219 C1   c   220
             : C1   c   221 C1   c   222 C1   c   223 C1   c   224 C1   c   225
             : C1   c   226 C1   c   227 C1   c   228 C1   c   229 C1   c   230
             : C1   c   231 C1   c   232 C1   c   233 C1   c   234 C1   c   235
             : C1   c   236 C1   c   237 C1   c   238 C1   c   239 C1   c   240
             : C7   c   325 C3   c   326 C2   c   327 C2   c   328 C2   c   329
             : C2   c   330 O1   c   331 O2   c   332 C2   c   333 C5   c   334
             : C5   c   335 C5   c   336 C4   c   337 C6   c   338 H1   c   339
             : H1   c   340 H1   c   341 H1   c   342 H1   c   343 H2   c   344
             : H2   c   345 H2   c   346 H2   c   347 H2   c   348 H2   c   349
             : H2   c   350 H2   c   351 H2   c   352
     5  0    : Cl   c   353 Cl   c   354 C2   c   355 C2   c   356 C2   c   357
             : C2   c   358 C2   c   359 C2   c   360 H1   c   361 H1   c   362
             : H1   c   363 H1   c   364
     6  0    : Cl   c   365 Cl   c   366 C2   c   367 C2   c   368 C2   c   369
             : C2   c   370 C2   c   371 C2   c   372 H1   c   373 H1   c   374
             : H1   c   375 H1   c   376
     7  0    : Cl   c   377 Cl   c   378 C2   c   379 C2   c   380 C2   c   381
             : C2   c   382 C2   c   383 C2   c   384 H1   c   385 H1   c   386
             : H1   c   387 H1   c   388
     8  0    : Cl   c   389 Cl   c   390 C2   c   391 C2   c   392 C2   c   393
             : C2   c   394 C2   c   395 C2   c   396 H1   c   397 H1   c   398
             : H1   c   399 H1   c   400
--------------------------------------------------------------------------------

  Brillouin zone sampling points :

--------------------------------------------------------------------------------
  Point number          x          y          z            Weight
--------------------------------------------------------------------------------
        1           0.000000   0.000000   0.000000         1.0000
--------------------------------------------------------------------------------


********************************************************************************
*  General input information                                                   *
********************************************************************************

  Species output for all configurations : 

--------------------------------------------------------------------------------
  Species    Type    Atomic    Atomic    Charge       Radii (Angs)     Library
                     Number     Mass       (e)     Cova   Ionic  VDW   Symbol
--------------------------------------------------------------------------------
    C1       Core        6      12.01   0.000000   0.770  0.000  1.530          
    C7       Core        6      12.01  -0.030000   0.770  0.000  1.530          
    C3       Core        6      12.01   0.000000   0.770  0.000  1.530          
    C2       Core        6      12.01  -0.115000   0.770  0.000  1.530          
    O1       Core        8      16.00  -0.500000   0.730  0.000  1.360          
    O2       Core        8      16.00  -0.170000   0.730  0.000  1.360          
    C5       Core        6      12.01  -0.120000   0.770  0.000  1.530          
    C4       Core        6      12.01   0.700000   0.770  0.000  1.530          
    C6       Core        6      12.01  -0.180000   0.770  0.000  1.530          
    H1       Core        1       1.01   0.115000   0.370  0.000  1.080          
    H2       Core        1       1.01   0.060000   0.370  0.000  1.080          
    Cl       Core       17      35.45   0.115000   0.990  0.000  1.650          
--------------------------------------------------------------------------------


  Lattice summation method = Wolf et al

  Modified method - smoothed energy only / correct forces

  Eta    =     0.223000 Angstrom**-1
  Cutoff =    12.000000 Angstrom

  Time limit = Infinity

  Maximum range for interatomic potentials =    100000.000000 Angstroms

  Intramolecular potentials :

--------------------------------------------------------------------------------
Atom  Types   Potential         A         B         C         D     Cutoffs(Ang)
  1     2                                                            Min    Max 
--------------------------------------------------------------------------------
C2   c C2   c Harmonic       40.7      1.40      0.00      0.00     0.000 1 Bond
                                                                    single      
C2   c C3   c Harmonic       40.7      1.40      0.00      0.00     0.000 1 Bond
                                                                    single      
C3   c C7   c Harmonic       27.5      1.51      0.00      0.00     0.000 1 Bond
                                                                    single      
H1   c C2   c Harmonic       31.8      1.08      0.00      0.00     0.000 1 Bond
                                                                    single      
C2   c Cl   c Harmonic       31.8      1.08      0.00      0.00     0.000 1 Bond
                                                                    single      
C5   c C7   c Harmonic       23.2      1.53      0.00      0.00     0.000 1 Bond
                                                                    single      
C5   c C5   c Harmonic       23.2      1.53      0.00      0.00     0.000 1 Bond
                                                                    single      
C1   c C7   c Harmonic       27.5      1.51      0.00      0.00     0.000 1 Bond
                                                                    single      
C4   c C5   c Harmonic       27.5      1.51      0.00      0.00     0.000 1 Bond
                                                                    single      
C6   c O2   c Harmonic       27.8      1.41      0.00      0.00     0.000 1 Bond
                                                                    single      
H2   c C5   c Harmonic       29.5      1.09      0.00      0.00     0.000 1 Bond
                                                                    single      
H2   c C6   c Harmonic       29.5      1.09      0.00      0.00     0.000 1 Bond
                                                                    single      
C4   c O1   c Harmonic       45.1      1.23      0.00      0.00     0.000 1 Bond
                                                                    single      
C4   c O2   c Harmonic       18.6      1.33      0.00      0.00     0.000 1 Bond
                                                                    single      
--------------------------------------------------------------------------------

  Intermolecular potentials :

--------------------------------------------------------------------------------
Atom  Types   Potential         A         B         C         D     Cutoffs(Ang)
  1     2                                                            Min    Max 
--------------------------------------------------------------------------------
C1   c C1   c Lenn/es 12  6 0.700E-01  3.55      0.00      0.00     0.000 12.000
C1   c C2   c Lenn/es 12  6 0.700E-01  3.55      0.00      0.00     0.000 12.000
C2   c C2   c Lenn/es 12  6 0.700E-01  3.55      0.00      0.00     0.000 12.000
C1   c C3   c Lenn/es 12  6 0.700E-01  3.55      0.00      0.00     0.000 12.000
C2   c C3   c Lenn/es 12  6 0.700E-01  3.55      0.00      0.00     0.000 12.000
C3   c C3   c Lenn/es 12  6 0.700E-01  3.55      0.00      0.00     0.000 12.000
C1   c C4   c Lenn/es 12  6 0.857E-01  3.65      0.00      0.00     0.000 12.000
C2   c C4   c Lenn/es 12  6 0.857E-01  3.65      0.00      0.00     0.000 12.000
C3   c C4   c Lenn/es 12  6 0.857E-01  3.65      0.00      0.00     0.000 12.000
C4   c C4   c Lenn/es 12  6 0.105      3.75      0.00      0.00     0.000 12.000
C1   c C5   c Lenn/es 12  6 0.680E-01  3.52      0.00      0.00     0.000 12.000
C2   c C5   c Lenn/es 12  6 0.680E-01  3.52      0.00      0.00     0.000 12.000
C3   c C5   c Lenn/es 12  6 0.680E-01  3.52      0.00      0.00     0.000 12.000
C4   c C5   c Lenn/es 12  6 0.832E-01  3.62      0.00      0.00     0.000 12.000
C5   c C5   c Lenn/es 12  6 0.660E-01  3.50      0.00      0.00     0.000 12.000
C1   c C6   c Lenn/es 12  6 0.680E-01  3.52      0.00      0.00     0.000 12.000
C2   c C6   c Lenn/es 12  6 0.680E-01  3.52      0.00      0.00     0.000 12.000
C3   c C6   c Lenn/es 12  6 0.680E-01  3.52      0.00      0.00     0.000 12.000
C4   c C6   c Lenn/es 12  6 0.832E-01  3.62      0.00      0.00     0.000 12.000
C5   c C6   c Lenn/es 12  6 0.660E-01  3.50      0.00      0.00     0.000 12.000
C6   c C6   c Lenn/es 12  6 0.660E-01  3.50      0.00      0.00     0.000 12.000
C1   c C7   c Lenn/es 12  6 0.680E-01  3.52      0.00      0.00     0.000 12.000
C2   c C7   c Lenn/es 12  6 0.680E-01  3.52      0.00      0.00     0.000 12.000
C3   c C7   c Lenn/es 12  6 0.680E-01  3.52      0.00      0.00     0.000 12.000
C4   c C7   c Lenn/es 12  6 0.832E-01  3.62      0.00      0.00     0.000 12.000
C5   c C7   c Lenn/es 12  6 0.660E-01  3.50      0.00      0.00     0.000 12.000
C6   c C7   c Lenn/es 12  6 0.660E-01  3.50      0.00      0.00     0.000 12.000
C7   c C7   c Lenn/es 12  6 0.660E-01  3.50      0.00      0.00     0.000 12.000
C1   c O1   c Lenn/es 12  6 0.121      3.24      0.00      0.00     0.000 12.000
C2   c O1   c Lenn/es 12  6 0.121      3.24      0.00      0.00     0.000 12.000
C3   c O1   c Lenn/es 12  6 0.121      3.24      0.00      0.00     0.000 12.000
C4   c O1   c Lenn/es 12  6 0.148      3.33      0.00      0.00     0.000 12.000
C5   c O1   c Lenn/es 12  6 0.118      3.22      0.00      0.00     0.000 12.000
C6   c O1   c Lenn/es 12  6 0.118      3.22      0.00      0.00     0.000 12.000
C7   c O1   c Lenn/es 12  6 0.118      3.22      0.00      0.00     0.000 12.000
O1   c O1   c Lenn/es 12  6 0.210      2.96      0.00      0.00     0.000 12.000
C1   c O2   c Lenn/es 12  6 0.990E-01  3.21      0.00      0.00     0.000 12.000
C2   c O2   c Lenn/es 12  6 0.990E-01  3.21      0.00      0.00     0.000 12.000
C3   c O2   c Lenn/es 12  6 0.990E-01  3.21      0.00      0.00     0.000 12.000
C4   c O2   c Lenn/es 12  6 0.121      3.30      0.00      0.00     0.000 12.000
C5   c O2   c Lenn/es 12  6 0.961E-01  3.19      0.00      0.00     0.000 12.000
C6   c O2   c Lenn/es 12  6 0.961E-01  3.19      0.00      0.00     0.000 12.000
C7   c O2   c Lenn/es 12  6 0.961E-01  3.19      0.00      0.00     0.000 12.000
O1   c O2   c Lenn/es 12  6 0.171      2.93      0.00      0.00     0.000 12.000
O2   c O2   c Lenn/es 12  6 0.140      2.90      0.00      0.00     0.000 12.000
H1   c C1   c Lenn/es 12  6 0.458E-01  2.93      0.00      0.00     0.000 12.000
H1   c C2   c Lenn/es 12  6 0.458E-01  2.93      0.00      0.00     0.000 12.000
H1   c C3   c Lenn/es 12  6 0.458E-01  2.93      0.00      0.00     0.000 12.000
H1   c C4   c Lenn/es 12  6 0.561E-01  3.01      0.00      0.00     0.000 12.000
H1   c C5   c Lenn/es 12  6 0.445E-01  2.91      0.00      0.00     0.000 12.000
H1   c C6   c Lenn/es 12  6 0.445E-01  2.91      0.00      0.00     0.000 12.000
H1   c C7   c Lenn/es 12  6 0.445E-01  2.91      0.00      0.00     0.000 12.000
H1   c O1   c Lenn/es 12  6 0.794E-01  2.68      0.00      0.00     0.000 12.000
H1   c O2   c Lenn/es 12  6 0.648E-01  2.65      0.00      0.00     0.000 12.000
H1   c H1   c Lenn/es 12  6 0.300E-01  2.42      0.00      0.00     0.000 12.000
H2   c C1   c Lenn/es 12  6 0.458E-01  2.98      0.00      0.00     0.000 12.000
H2   c C2   c Lenn/es 12  6 0.458E-01  2.98      0.00      0.00     0.000 12.000
H2   c C3   c Lenn/es 12  6 0.458E-01  2.98      0.00      0.00     0.000 12.000
H2   c C4   c Lenn/es 12  6 0.561E-01  3.06      0.00      0.00     0.000 12.000
H2   c C5   c Lenn/es 12  6 0.445E-01  2.96      0.00      0.00     0.000 12.000
H2   c C6   c Lenn/es 12  6 0.445E-01  2.96      0.00      0.00     0.000 12.000
H2   c C7   c Lenn/es 12  6 0.445E-01  2.96      0.00      0.00     0.000 12.000
H2   c O1   c Lenn/es 12  6 0.794E-01  2.72      0.00      0.00     0.000 12.000
H2   c O2   c Lenn/es 12  6 0.648E-01  2.69      0.00      0.00     0.000 12.000
H1   c H2   c Lenn/es 12  6 0.300E-01  2.46      0.00      0.00     0.000 12.000
H2   c H2   c Lenn/es 12  6 0.300E-01  2.50      0.00      0.00     0.000 12.000
C1   c Cl   c Lenn/es 12  6 0.458E-01  2.93      0.00      0.00     0.000 12.000
C2   c Cl   c Lenn/es 12  6 0.458E-01  2.93      0.00      0.00     0.000 12.000
C3   c Cl   c Lenn/es 12  6 0.458E-01  2.93      0.00      0.00     0.000 12.000
C4   c Cl   c Lenn/es 12  6 0.561E-01  3.01      0.00      0.00     0.000 12.000
C5   c Cl   c Lenn/es 12  6 0.445E-01  2.91      0.00      0.00     0.000 12.000
C6   c Cl   c Lenn/es 12  6 0.445E-01  2.91      0.00      0.00     0.000 12.000
C7   c Cl   c Lenn/es 12  6 0.445E-01  2.91      0.00      0.00     0.000 12.000
O1   c Cl   c Lenn/es 12  6 0.794E-01  2.68      0.00      0.00     0.000 12.000
O2   c Cl   c Lenn/es 12  6 0.648E-01  2.65      0.00      0.00     0.000 12.000
H1   c Cl   c Lenn/es 12  6 0.300E-01  2.42      0.00      0.00     0.000 12.000
H2   c Cl   c Lenn/es 12  6 0.300E-01  2.46      0.00      0.00     0.000 12.000
Cl   c Cl   c Lenn/es 12  6 0.300E-01  2.42      0.00      0.00     0.000 12.000
--------------------------------------------------------------------------------

  Intramolecular Three-body potentials :

  Cosine Harmonic form:

--------------------------------------------------------------------------------
Atom    Atom    Atom           Force Constants            Theta     Cutoffs  
  1       2       3               (eV)                    (deg)  1-2  1-3  2-3
--------------------------------------------------------------------------------
C2    c C2    c C2    c                  5.4639184       120.000     Bonded
C3    c C2    c C2    c                  5.4639184       120.000     Bonded
C2    c C2    c C3    c                  5.4639184       120.000     Bonded
C3    c C2    c C7    c                  6.0710205       120.000     Bonded
C2    c H1    c C2    c                  3.0355102       120.000     Bonded
C2    c C2    c Cl    c                  3.0355102       120.000     Bonded
C2    c H1    c C3    c                  3.0355102       120.000     Bonded
C5    c C5    c C7    c                  5.0606292       112.700     Bonded
C5    c C5    c C5    c                  5.0606292       112.700     Bonded
C7    c C3    c C5    c                  5.4639184       114.000     Bonded
C7    c C1    c C5    c                  5.4639184       114.000     Bonded
C7    c C1    c C1    c                  3.4691546       109.500     Bonded
C5    c C4    c C5    c                  5.4639184       111.100     Bonded
C5    c H2    c C7    c                  3.2523324       110.700     Bonded
C5    c H2    c C5    c                  3.2523324       110.700     Bonded
C5    c H2    c C4    c                  3.0355102       109.500     Bonded
C6    c H2    c O2    c                  3.0355102       109.500     Bonded
C5    c H2    c H2    c                  2.8620525       107.800     Bonded
C6    c H2    c H2    c                  2.8620525       107.800     Bonded
C7    c C1    c C5    c                  5.4639184       111.100     Bonded
C7    c C1    c C3    c                  3.4691546       109.500     Bonded
C4    c C5    c O2    c                  7.0250380       111.400     Bonded
C4    c C5    c O1    c                  6.9383091       120.400     Bonded
C4    c O1    c O2    c                  7.1984957       123.400     Bonded
O2    c C4    c C6    c                  7.1984957       116.900     Bonded
C1    c C1    c C7    c                  6.0710205       120.000     Bonded
--------------------------------------------------------------------------------

  Intramolecular Four-body potentials :

  Standard form:

--------------------------------------------------------------------------------
         Atom Types             Force cst Sign Phase Phi0         Cutoffs
   1       2       3       4       (eV)                     1-2  2-3  3-4  4-1
--------------------------------------------------------------------------------
H1    c C2    c C2    c H1    c  0.3144     -   2     0.00  Bonded              
H1    c C2    c C2    c Cl    c  0.3144     -   2     0.00  Bonded              
Cl    c C2    c C2    c Cl    c  0.3144     -   2     0.00  Bonded              
H1    c C2    c C2    c C2    c  0.3144     -   2     0.00  Bonded              
H1    c C2    c C2    c C3    c  0.3144     -   2     0.00  Bonded              
H1    c C2    c C3    c C7    c  0.3144     -   2     0.00  Bonded              
C7    c C5    c C5    c C5    c  0.2819E-01 +   1     0.00  Bonded              
C7    c C5    c C5    c C5    c  -.1084E-02 -   2     0.00  Bonded              
C7    c C5    c C5    c C5    c  0.4336E-02 +   3     0.00  Bonded              
C5    c C5    c C5    c H2    c  0.6505E-02 +   3     0.00  Bonded              
C7    c C5    c C5    c H2    c  0.6505E-02 +   3     0.00  Bonded              
H2    c C5    c C5    c H2    c  0.6505E-02 +   3     0.00  Bonded              
O1    c C4    c C5    c C5    c  -.6006E-02 +   1     0.00  Bonded              
O1    c C4    c C5    c C5    c  0.2663E-01 -   2     0.00  Bonded              
O1    c C4    c C5    c C5    c  -.1505E-01 +   3     0.00  Bonded              
O2    c C4    c C5    c C5    c  -.1199E-01 -   2     0.00  Bonded              
O2    c C4    c C5    c H2    c  0.2862E-02 -   2     0.00  Bonded              
C5    c C4    c O2    c C6    c  0.1012     +   1     0.00  Bonded              
C5    c C4    c O2    c C6    c  0.1111     -   2     0.00  Bonded              
O1    c C4    c O2    c C6    c  0.1111     -   2     0.00  Bonded              
C4    c O2    c C6    c H2    c  0.4293E-02 +   3     0.00  Bonded              
C1    c C7    c C5    c C5    c  0.2819E-01 +   1     0.00  Bonded              
C1    c C7    c C5    c C5    c  -.1084E-02 -   2     0.00  Bonded              
C1    c C7    c C5    c C5    c  0.4336E-02 +   3     0.00  Bonded              
C1    c C7    c C5    c H2    c  0.6505E-02 +   3     0.00  Bonded              
C1    c C1    c C7    c C3    c  0.3144     -   2     0.00  Bonded              
C1    c C1    c C7    c C5    c  0.3144     -   2     0.00  Bonded              
--------------------------------------------------------------------------------

  Bond-order two-body potentials :

--------------------------------------------------------------------------------
Atom  Types                 A                 B                  Cutoffs(Ang)   
  1     2                 ZetaA             ZetaB                Taper    Max   
--------------------------------------------------------------------------------
C1   c C1   c          1393.6000000000       430.0000000000     1.8000   2.1000
                          3.487900000          2.211900000    
--------------------------------------------------------------------------------

  Bond-order repulsive :

--------------------------------------------------------------------------------
Atom    Type         Alpha            N             Lambda          M           
 1/2     1/2                                                                    
--------------------------------------------------------------------------------
C1   c             0.00000000       0.72751000       2.21190000       3
C1   c
--------------------------------------------------------------------------------

  Bond-order attractive :

--------------------------------------------------------------------------------
Atom    Type         Alpha            N             Lambda          M           
 1/2     1/2           C              D                H                        
--------------------------------------------------------------------------------
C1   c  Theta       0.00000016       0.72751000       2.21190000       3
C1   c          38049.00000000       4.38400000      -0.93000000
--------------------------------------------------------------------------------

********************************************************************************
*  Output for configuration   1                                                *
********************************************************************************


  Components of energy : 

--------------------------------------------------------------------------------
  Interatomic potentials     =        -231.32249201 eV
  Three-body potentials      =          31.45418269 eV
  Four-body potentials       =          11.94371065 eV
  Out of plane potentials    =           0.00000000 eV
  Bond-order potentials      =       -1726.51240835 eV
  Monopole - monopole (real) =           8.31771854 eV
  Monopole - monopole (recip)=           0.00000000 eV
  Monopole - monopole (total)=           8.31771854 eV
  Wolf sum self energy       =          -8.47010716 eV
--------------------------------------------------------------------------------
  Total lattice energy       =       -1914.58939565 eV
--------------------------------------------------------------------------------
  Total lattice energy       =         -184728.6095 kJ/(mole unit cells)
--------------------------------------------------------------------------------


  Number of variables =     1197

  Maximum number of calculations  =         10000
  Maximum Hessian update interval =            10
  Maximum step size               =   1.000000000
  Maximum parameter tolerance     =   0.000010000
  Maximum function  tolerance     =   0.000010000
  Maximum gradient  tolerance     =   0.001000000
  Maximum gradient  component     =   0.010000000

  Symmetry not applied to optimisation

  Newton-Raphson optimiser to be used

  BFGS hessian update to be used

  Start of bulk optimisation :

  Cycle:      0 Energy:     -1914.589396  Gnorm:      1.222460  CPU:    1.480
  ** Hessian calculated **
  Cycle:      1 Energy:     -1976.940176  Gnorm:      0.441583  CPU:    7.064
  ** Hessian calculated **
  Cycle:      2 Energy:     -1985.230552  Gnorm:      0.275098  CPU:   13.928
  Cycle:      3 Energy:     -1990.082786  Gnorm:      0.159759  CPU:   17.084
  Cycle:      4 Energy:     -1992.633640  Gnorm:      0.153331  CPU:   20.448
  Cycle:      5 Energy:     -1994.113278  Gnorm:      0.108875  CPU:   23.016
  Cycle:      6 Energy:     -1994.934619  Gnorm:      0.102592  CPU:   25.572
  Cycle:      7 Energy:     -1995.297684  Gnorm:      0.106810  CPU:   28.168
  Cycle:      8 Energy:     -1996.184005  Gnorm:      0.088416  CPU:   31.524
  Cycle:      9 Energy:     -1996.895664  Gnorm:      0.085595  CPU:   34.764
  Cycle:     10 Energy:     -1997.304002  Gnorm:      0.091647  CPU:   37.504
  Cycle:     11 Energy:     -1997.823350  Gnorm:      0.087777  CPU:   41.188
  ** Hessian calculated **
  Cycle:     12 Energy:     -2002.602795  Gnorm:      0.067491  CPU:   50.556
  Cycle:     13 Energy:     -2003.314470  Gnorm:      0.046817  CPU:   53.840
  Cycle:     14 Energy:     -2003.535430  Gnorm:      0.036460  CPU:   57.136
  Cycle:     15 Energy:     -2003.805427  Gnorm:      0.025557  CPU:   60.352
  Cycle:     16 Energy:     -2003.853824  Gnorm:      0.028156  CPU:   62.900
  Cycle:     17 Energy:     -2003.860004  Gnorm:      0.030348  CPU:   66.136
  ** Hessian calculated **
  Cycle:     18 Energy:     -2004.096486  Gnorm:      0.006458  CPU:   73.012
  Cycle:     19 Energy:     -2004.112834  Gnorm:      0.007839  CPU:   75.632
  ** Hessian calculated **
  Cycle:     20 Energy:     -2004.117450  Gnorm:      0.004973  CPU:   81.620
  Cycle:     21 Energy:     -2004.121551  Gnorm:      0.004176  CPU:   84.772
  Cycle:     22 Energy:     -2004.122858  Gnorm:      0.003589  CPU:   87.260
  Cycle:     23 Energy:     -2004.123831  Gnorm:      0.002965  CPU:   90.328
  Cycle:     24 Energy:     -2004.124033  Gnorm:      0.002866  CPU:   92.844
  Cycle:     25 Energy:     -2004.130438  Gnorm:      0.004859  CPU:   96.864
  Cycle:     26 Energy:     -2004.133590  Gnorm:      0.007768  CPU:  100.388
  Cycle:     27 Energy:     -2004.139917  Gnorm:      0.008532  CPU:  103.764
  Cycle:     28 Energy:     -2004.157526  Gnorm:      0.016405  CPU:  107.740
  Cycle:     29 Energy:     -2004.195920  Gnorm:      0.024700  CPU:  111.184
  ** Hessian calculated **
  Cycle:     30 Energy:     -2004.222349  Gnorm:      0.015973  CPU:  117.220
  Cycle:     31 Energy:     -2004.258809  Gnorm:      0.013671  CPU:  120.396
  Cycle:     32 Energy:     -2004.274518  Gnorm:      0.011264  CPU:  122.948
  Cycle:     33 Energy:     -2004.301190  Gnorm:      0.015249  CPU:  126.672
  Cycle:     34 Energy:     -2004.319151  Gnorm:      0.010870  CPU:  129.220
  Cycle:     35 Energy:     -2004.335335  Gnorm:      0.011589  CPU:  132.372
  Cycle:     36 Energy:     -2004.357372  Gnorm:      0.013609  CPU:  135.492
  Cycle:     37 Energy:     -2004.391647  Gnorm:      0.020943  CPU:  139.284
  Cycle:     38 Energy:     -2004.458585  Gnorm:      0.025637  CPU:  142.360
  Cycle:     39 Energy:     -2004.536278  Gnorm:      0.031181  CPU:  145.412
  ** Hessian calculated **
  Cycle:     40 Energy:     -2004.596892  Gnorm:      0.024338  CPU:  151.336
  Cycle:     41 Energy:     -2004.665581  Gnorm:      0.024778  CPU:  153.836
  Cycle:     42 Energy:     -2004.708833  Gnorm:      0.016936  CPU:  156.312
  Cycle:     43 Energy:     -2004.750471  Gnorm:      0.018634  CPU:  159.464
  Cycle:     44 Energy:     -2004.788091  Gnorm:      0.019498  CPU:  162.616
  Cycle:     45 Energy:     -2004.832330  Gnorm:      0.016834  CPU:  165.824
  Cycle:     46 Energy:     -2004.857093  Gnorm:      0.014380  CPU:  168.316
  Cycle:     47 Energy:     -2004.878632  Gnorm:      0.015020  CPU:  171.400
  Cycle:     48 Energy:     -2004.901810  Gnorm:      0.014940  CPU:  174.500
  Cycle:     49 Energy:     -2004.926017  Gnorm:      0.016581  CPU:  177.592
  ** Hessian calculated **
  Cycle:     50 Energy:     -2004.940202  Gnorm:      0.012540  CPU:  183.528
  Cycle:     51 Energy:     -2004.957826  Gnorm:      0.013837  CPU:  186.656
  Cycle:     52 Energy:     -2004.971775  Gnorm:      0.011214  CPU:  191.092
  Cycle:     53 Energy:     -2004.987742  Gnorm:      0.016256  CPU:  194.284
  Cycle:     54 Energy:     -2005.007496  Gnorm:      0.015078  CPU:  197.488
  Cycle:     55 Energy:     -2005.029755  Gnorm:      0.015876  CPU:  200.692
  Cycle:     56 Energy:     -2005.046486  Gnorm:      0.010909  CPU:  203.856
  Cycle:     57 Energy:     -2005.070988  Gnorm:      0.011955  CPU:  206.996
  Cycle:     58 Energy:     -2005.089370  Gnorm:      0.012880  CPU:  210.924
  Cycle:     59 Energy:     -2005.111920  Gnorm:      0.015494  CPU:  214.252
  ** Hessian calculated **
  Cycle:     60 Energy:     -2005.227501  Gnorm:      0.021250  CPU:  221.400
  Cycle:     61 Energy:     -2005.381100  Gnorm:      0.015727  CPU:  225.200
  Cycle:     62 Energy:     -2005.473292  Gnorm:      0.008992  CPU:  228.624
  Cycle:     63 Energy:     -2005.490542  Gnorm:      0.007178  CPU:  231.992
  Cycle:     64 Energy:     -2005.496216  Gnorm:      0.003556  CPU:  235.232
  Cycle:     65 Energy:     -2005.496904  Gnorm:      0.003175  CPU:  239.016
  Cycle:     66 Energy:     -2005.498208  Gnorm:      0.003045  CPU:  242.560
  Cycle:     67 Energy:     -2005.498282  Gnorm:      0.003030  CPU:  245.248
  Cycle:     68 Energy:     -2005.498462  Gnorm:      0.003032  CPU:  248.096
  Cycle:     69 Energy:     -2005.498462  Gnorm:      0.003032  CPU:  251.268
  ** Hessian calculated **
  Cycle:     70 Energy:     -2005.506133  Gnorm:      0.002003  CPU:  260.876
  Cycle:     71 Energy:     -2005.506661  Gnorm:      0.002392  CPU:  265.608
  Cycle:     72 Energy:     -2005.506733  Gnorm:      0.002369  CPU:  268.748
  Cycle:     73 Energy:     -2005.506798  Gnorm:      0.002351  CPU:  272.000
  Cycle:     74 Energy:     -2005.506798  Gnorm:      0.002351  CPU:  274.488
  ** Hessian calculated **
  Cycle:     75 Energy:     -2005.507010  Gnorm:      0.001418  CPU:  281.732
  Cycle:     76 Energy:     -2005.507199  Gnorm:      0.000749  CPU:  284.820
  Cycle:     77 Energy:     -2005.507201  Gnorm:      0.000734  CPU:  287.936
  Cycle:     78 Energy:     -2005.507208  Gnorm:      0.000701  CPU:  291.700
  Cycle:     79 Energy:     -2005.507345  Gnorm:      0.000610  CPU:  295.420
  Cycle:     80 Energy:     -2005.507345  Gnorm:      0.000610  CPU:  298.580
  ** Hessian calculated **
  Cycle:     81 Energy:     -2005.507410  Gnorm:      0.000606  CPU:  305.304
  Cycle:     82 Energy:     -2005.507454  Gnorm:      0.000605  CPU:  307.848
  Cycle:     83 Energy:     -2005.507456  Gnorm:      0.000605  CPU:  311.688
  Cycle:     84 Energy:     -2005.507456  Gnorm:      0.000605  CPU:  314.456
  ** Hessian calculated **
  Cycle:     85 Energy:     -2005.507512  Gnorm:      0.000615  CPU:  321.568
  Cycle:     86 Energy:     -2005.507512  Gnorm:      0.000615  CPU:  324.044
  Cycle:     87 Energy:     -2005.507521  Gnorm:      0.000613  CPU:  327.740
  Cycle:     88 Energy:     -2005.507521  Gnorm:      0.000613  CPU:  330.204
  ** Hessian calculated **
  Cycle:     89 Energy:     -2005.507521  Gnorm:      0.000613  CPU:  339.148
  ** Hessian calculated **

  XYZ File written as gulp.xyz                                



  **** Optimisation achieved ****


  Final energy =   -2005.50752072 eV
  Final Gnorm  =       0.00061311

  Components of energy : 

--------------------------------------------------------------------------------
  Interatomic potentials     =        -313.63979638 eV
  Three-body potentials      =          30.43475003 eV
  Four-body potentials       =          13.94508558 eV
  Out of plane potentials    =           0.00000000 eV
  Bond-order potentials      =       -1736.15549395 eV
  Monopole - monopole (real) =           8.37804117 eV
  Monopole - monopole (recip)=           0.00000000 eV
  Monopole - monopole (total)=           8.37804117 eV
  Wolf sum self energy       =          -8.47010716 eV
--------------------------------------------------------------------------------
  Total lattice energy       =       -2005.50752072 eV
--------------------------------------------------------------------------------
  Total lattice energy       =         -193500.8188 kJ/(mole unit cells)
--------------------------------------------------------------------------------

  Final fractional coordinates of atoms :

--------------------------------------------------------------------------------
   No.  Atomic        x           y          z          Radius
        Label       (Frac)      (Frac)     (Frac)       (Angs) 
--------------------------------------------------------------------------------
     1  C1    c     0.215559    0.184381    0.392082    0.000000
     2  C1    c     0.167466    0.136406    0.330743    0.000000
     3  C1    c     0.078902    0.085329    0.336397    0.000000
     4  C1    c     0.047519    0.078812    0.401923    0.000000
     5  C1    c     0.101447    0.124771    0.466805    0.000000
     6  C1    c     0.181087    0.177586    0.460461    0.000000
     7  C1    c     0.180688    0.261041    0.486931    0.000000
     8  C1    c     0.222071    0.318621    0.443870    0.000000
     9  C1    c     0.237364    0.271405    0.381299    0.000000
    10  C1    c     0.210975    0.306954    0.309730    0.000000
    11  C1    c     0.156263    0.257137    0.246859    0.000000
    12  C1    c     0.133626    0.174406    0.256642    0.000000
    13  C1    c     0.032337    0.142267    0.217665    0.000000
    14  C1    c    -0.002107    0.087930    0.266979    0.000000
    15  C1    c    -0.107637    0.078892    0.263342    0.000000
    16  C1    c    -0.137913    0.073578    0.332008    0.000000
    17  C1    c    -0.061512    0.075140    0.398827    0.000000
    18  C1    c    -0.076370    0.120899    0.461474    0.000000
    19  C1    c     0.023049    0.152315    0.502071    0.000000
    20  C1    c     0.027297    0.231129    0.530369    0.000000
    21  C1    c     0.104762    0.286028    0.520706    0.000000
    22  C1    c     0.070140    0.369443    0.518440    0.000000
    23  C1    c     0.104608    0.423214    0.471513    0.000000
    24  C1    c     0.182556    0.398875    0.434472    0.000000
    25  C1    c     0.153387    0.434188    0.360090    0.000000
    26  C1    c     0.168199    0.390025    0.299145    0.000000
    27  C1    c     0.085337    0.389136    0.231081    0.000000
    28  C1    c     0.078080    0.307787    0.199689    0.000000
    29  C1    c    -0.016946    0.276112    0.159853    0.000000
    30  C1    c    -0.041758    0.190634    0.168482    0.000000
    31  C1    c    -0.150131    0.184328    0.166754    0.000000
    32  C1    c    -0.184784    0.128520    0.211908    0.000000
    33  C1    c    -0.261578    0.155623    0.250137    0.000000
    34  C1    c    -0.231238    0.121134    0.324687    0.000000
    35  C1    c    -0.243628    0.167134    0.384716    0.000000
    36  C1    c    -0.166041    0.165462    0.455574    0.000000
    37  C1    c    -0.160996    0.246285    0.488804    0.000000
    38  C1    c    -0.064289    0.278764    0.524665    0.000000
    39  C1    c    -0.038131    0.363809    0.518025    0.000000
    40  C1    c    -0.110370    0.411039    0.467386    0.000000
    41  C1    c    -0.076213    0.464369    0.417171    0.000000
    42  C1    c     0.027418    0.469658    0.418717    0.000000
    43  C1    c     0.057533    0.478211    0.351741    0.000000
    44  C1    c    -0.018623    0.480758    0.284403    0.000000
    45  C1    c    -0.003930    0.435348    0.222271    0.000000
    46  C1    c    -0.102895    0.401449    0.183679    0.000000
    47  C1    c    -0.108466    0.323477    0.153150    0.000000
    48  C1    c    -0.186091    0.268102    0.162975    0.000000
    49  C1    c    -0.261641    0.293306    0.197107    0.000000
    50  C1    c    -0.300758    0.235809    0.241313    0.000000
    51  C1    c    -0.315186    0.283431    0.304175    0.000000
    52  C1    c    -0.289024    0.248592    0.374957    0.000000
    53  C1    c    -0.235352    0.297018    0.438389    0.000000
    54  C1    c    -0.208149    0.378110    0.427402    0.000000
    55  C1    c    -0.238244    0.415809    0.354555    0.000000
    56  C1    c    -0.291303    0.369268    0.293477    0.000000
    57  C1    c    -0.260354    0.375663    0.224632    0.000000
    58  C1    c    -0.180138    0.427904    0.219305    0.000000
    59  C1    c    -0.125464    0.475376    0.283012    0.000000
    60  C1    c    -0.154880    0.469438    0.349099    0.000000
    61  C1    c     0.255955    0.684060    0.109168    0.000000
    62  C1    c     0.307469    0.633466    0.168064    0.000000
    63  C1    c     0.394131    0.583913    0.158325    0.000000
    64  C1    c     0.421101    0.580002    0.091243    0.000000
    65  C1    c     0.365565    0.628629    0.028381    0.000000
    66  C1    c     0.288771    0.682464    0.039368    0.000000
    67  C1    c     0.292123    0.767138    0.016686    0.000000
    68  C1    c     0.255785    0.822845    0.063941    0.000000
    69  C1    c     0.240207    0.772086    0.125193    0.000000
    70  C1    c     0.272898    0.804413    0.198036    0.000000
    71  C1    c     0.327817    0.751033    0.258091    0.000000
    72  C1    c     0.344795    0.667887    0.244333    0.000000
    73  C1    c     0.446713    0.633826    0.280269    0.000000
    74  C1    c     0.476655    0.583063    0.226498    0.000000
    75  C1    c     0.580533    0.573113    0.226825    0.000000
    76  C1    c     0.607088    0.569738    0.156882    0.000000
    77  C1    c     0.528693    0.576119    0.091882    0.000000
    78  C1    c     0.542510    0.623434    0.030094    0.000000
    79  C1    c     0.442926    0.656589   -0.008093    0.000000
    80  C1    c     0.441239    0.737051   -0.032569    0.000000
    81  C1    c     0.367254    0.792579   -0.017771    0.000000
    82  C1    c     0.405864    0.874753   -0.012605    0.000000
    83  C1    c     0.375846    0.927270    0.037382    0.000000
    84  C1    c     0.298534    0.902426    0.075346    0.000000
    85  C1    c     0.332784    0.934367    0.151247    0.000000
    86  C1    c     0.320229    0.886274    0.210808    0.000000
    87  C1    c     0.406347    0.879723    0.276532    0.000000
    88  C1    c     0.410390    0.798189    0.305956    0.000000
    89  C1    c     0.505377    0.764031    0.343125    0.000000
    90  C1    c     0.524637    0.678379    0.330583    0.000000
    91  C1    c     0.631895    0.671383    0.328489    0.000000
    92  C1    c     0.660333    0.619091    0.278169    0.000000
    93  C1    c     0.734732    0.646889    0.238676    0.000000
    94  C1    c     0.700955    0.615557    0.163589    0.000000
    95  C1    c     0.712830    0.663524    0.104791    0.000000
    96  C1    c     0.633662    0.665540    0.035284    0.000000
    97  C1    c     0.630512    0.747789    0.005965    0.000000
    98  C1    c     0.534241    0.782980   -0.027028    0.000000
    99  C1    c     0.512883    0.867895   -0.015638    0.000000
   100  C1    c     0.589153    0.911790    0.035252    0.000000
   101  C1    c     0.560170    0.964311    0.088513    0.000000
   102  C1    c     0.457301    0.970871    0.089528    0.000000
   103  C1    c     0.431303    0.973990    0.158249    0.000000
   104  C1    c     0.511169    0.969529    0.223103    0.000000
   105  C1    c     0.497531    0.922557    0.284173    0.000000
   106  C1    c     0.596232    0.889007    0.322171    0.000000
   107  C1    c     0.598797    0.809596    0.349511    0.000000
   108  C1    c     0.672853    0.753416    0.335052    0.000000
   109  C1    c     0.747401    0.779203    0.299913    0.000000
   110  C1    c     0.781074    0.724141    0.251161    0.000000
   111  C1    c     0.796032    0.773810    0.189616    0.000000
   112  C1    c     0.763418    0.742929    0.117340    0.000000
   113  C1    c     0.709132    0.794887    0.056536    0.000000
   114  C1    c     0.686796    0.875932    0.071585    0.000000
   115  C1    c     0.722286    0.909613    0.145918    0.000000
   116  C1    c     0.775435    0.859519    0.204496    0.000000
   117  C1    c     0.748408    0.862871    0.275222    0.000000
   118  C1    c     0.672344    0.916783    0.285431    0.000000
   119  C1    c     0.616977    0.966559    0.223140    0.000000
   120  C1    c     0.642367    0.964370    0.155462    0.000000
   121  C1    c     0.762624    0.849837    0.611758    0.000000
   122  C1    c     0.812190    0.900614    0.670925    0.000000
   123  C1    c     0.892895    0.956360    0.660386    0.000000
   124  C1    c     0.917185    0.963964    0.592228    0.000000
   125  C1    c     0.863200    0.914412    0.529319    0.000000
   126  C1    c     0.790963    0.856700    0.540880    0.000000
   127  C1    c     0.796508    0.772828    0.516255    0.000000
   128  C1    c     0.765005    0.713878    0.563411    0.000000
   129  C1    c     0.750349    0.761435    0.626387    0.000000
   130  C1    c     0.786450    0.727978    0.698576    0.000000
   131  C1    c     0.840542    0.780965    0.758939    0.000000
   132  C1    c     0.853316    0.864680    0.745652    0.000000
   133  C1    c     0.952603    0.902435    0.781102    0.000000
   134  C1    c     0.977070    0.957658    0.727756    0.000000
   135  C1    c     1.079680    0.971033    0.726402    0.000000
   136  C1    c     1.103887    0.977501    0.655740    0.000000
   137  C1    c     1.024100    0.970833    0.591465    0.000000
   138  C1    c     1.038642    0.925742    0.528811    0.000000
   139  C1    c     0.940358    0.890175    0.491402    0.000000
[...]
   983     1470.4803                  0.00001206888685
   984     1471.5174                  0.00001491065479
   985     1472.1712                  0.00001489741317
   986     1473.6103                  0.00000000000000
   987     1475.7093                  0.00000621369461
   988     1476.0203                  0.00000615202426
   989     1476.2802                  0.00000452591426
   990     1476.9176                  0.00002421066582
   991     1477.1912                  0.00008107615160
   992     1477.3505                  0.00011395681436
   993     1477.6900                  0.00002517850945
   994     1478.2847                  0.00003865828547
   995     1478.6362                  0.00003401737345
   996     1479.4618                  0.00000544583443
   997     1480.7797                  0.00000135922897
   998     1481.6536                  0.00000135762596
   999     1483.7162                  0.00000000000000
  1000     1484.8096                  0.00001198297258
  1001     1485.2716                  0.00001197551939
  1002     1487.1268                  0.00000419962753
  1003     1487.8646                  0.00000817088283
  1004     1488.6540                  0.00000397120407
  1005     1491.9512                  0.00000316929405
  1006     1492.8207                  0.00000992807667
  1007     1493.5018                  0.00000675630687
  1008     1495.3684                  0.00000012190880
  1009     1496.1684                  0.00000076316816
  1010     1496.6133                  0.00000504320881
  1011     1497.5330                  0.00000442731942
  1012     1498.4090                  0.00000218845415
  1013     1499.0696                  0.00001528063294
  1014     1499.3036                  0.00001031115727
  1015     1499.8666                  0.00001756672339
  1016     1500.3005                  0.00000672750061
  1017     1501.0811                  0.00001119842574
  1018     1501.7118                  0.00002640233365
  1019     1502.0564                  0.00002540421306
  1020     1502.5747                  0.00003894959205
  1021     1502.7780                  0.00002898341781
  1022     1504.5516                  0.00000000000000
  1023     1505.6366                  0.00000858544572
  1024     1506.1008                  0.00001672205655
  1025     1506.5868                  0.00000813664986
  1026     1510.0413                  0.00000369222618
  1027     1510.8386                  0.00000589686358
  1028     1511.6774                  0.00001542183796
  1029     1512.5370                  0.00002587476472
  1030     1512.7689                  0.00001267014227
  1031     1514.5087                  0.00000810750954
  1032     1515.0531                  0.00001595809882
  1033     1515.4530                  0.00000785227068
  1034     1516.6017                  0.00000000000000
  1035     1517.7136                  0.00000000000000
  1036     1519.5940                  0.00012104248343
  1037     1519.8803                  0.00013350946852
  1038     1520.6114                  0.00001250056179
  1039     1526.2413                  0.00000000000000
  1040     1527.2906                  0.00000000000000
  1041     1528.4255                  0.00004256718452
  1042     1528.7138                  0.00004255112804
  1043     1530.0193                  0.00008984698995
  1044     1530.2451                  0.00008982046782
  1045     1531.5129                  0.00000880390993
  1046     1532.3331                  0.00000879448784
  1047     1533.9414                  0.00000000000000
  1048     1535.9597                  0.00000142710584
  1049     1536.6316                  0.00000142585812
  1050     1538.2000                  0.00000164727374
  1051     1539.0249                  0.00000164550835
  1052     1541.2214                  0.00000000000000
  1053     1542.4512                  0.00003586598517
  1054     1542.7790                  0.00003662798285
  1055     1543.3382                  0.00000219391577
  1056     1544.3531                  0.00000000000000
  1057     1545.8282                  0.00000116282268
  1058     1546.4165                  0.00002743038070
  1059     1546.9616                  0.00002624993214
  1060     1548.1089                  0.00000000000000
  1061     1549.7619                  0.00000000000000
  1062     1551.3936                  0.00004375763609
  1063     1551.6549                  0.00004374289843
  1064     1552.7112                  0.00000000000000
  1065     1555.9302                  0.00002228146399
  1066     1556.5117                  0.00004089723324
  1067     1557.0589                  0.00001861932237
  1068     1560.9795                  0.00000241090979
  1069     1561.7550                  0.00000240851608
  1070     1565.4953                  0.00000000000000
  1071     1570.0665                  0.00000586519430
  1072     1570.6284                  0.00000630187870
  1073     1571.2899                  0.00000044050934
  1074     1574.7154                  0.00000000000000
  1075     1577.7047                  0.00000000000000
  1076     1580.4698                  0.00000000000000
  1077     1583.4221                  0.00000000000000
  1078     1586.3534                  0.00000000000000
  1079     1589.1654                  0.00000000000000
  1080     1594.5998                  0.00000000000000
  1081     1596.2327                  0.00000156707286
  1082     1597.1632                  0.00000156524729
  1083     1598.2370                  0.00000000000000
  1084     1600.1667                  0.00000000000000
  1085     1603.9259                  0.00000000000000
  1086     1604.9509                  0.00002522170027
  1087     1605.2145                  0.00002817209425
  1088     1606.0887                  0.00000295545465
  1089     1608.4481                  0.00000000000000
  1090     1610.8170                  0.00000000000000
  1091     1612.6799                  0.00000000000000
  1092     1614.6555                  0.00000000000000
  1093     1617.6722                  0.00000000000000
  1094     1619.3547                  0.00000000000000
  1095     1622.4163                  0.00000000000000
  1096     1625.9348                  0.00000000000000
  1097     1632.1910                  0.00005099729810
  1098     1632.2539                  0.00005099337062
  1099     1636.3266                  0.00000000779055
  1100     1636.9083                  0.00000018443028
  1101     1637.6849                  0.00000017647778
  1102     1641.8181                  0.00000022387728
  1103     1642.6752                  0.00000754807805
  1104     1642.9032                  0.00000732240150
  1105     1646.8757                  0.00000000000000
  1106     1650.9740                  0.00000000000000
  1107     1653.8679                  0.00000000000000
  1108     1658.9397                  0.00000000000000
  1109     1665.5614                  0.00000000000000
  1110     1670.1625                  0.00000000000000
  1111     1679.4581                  0.00000000000000
  1112     1685.1557                  0.00000038215384
  1113     1685.4589                  0.00000038201636
  1114     1686.5384                  0.00000000000000
  1115     1689.1624                  0.00000000000000
  1116     1693.9589                  0.00000000000000
  1117     1697.2912                  0.00000000000000
  1118     1698.5919                  0.00000000000199
  1119     1699.1668                  0.00000034144528
  1120     1699.6187                  0.00000034126175
  1121     1703.2478                  0.00000000000000
  1122     1705.9575                  0.00000000024602
  1123     1706.8766                  0.00000000024576
  1124     1708.7299                  0.00000000000000
  1125     1710.3683                  0.00000000484514
  1126     1710.7505                  0.00000000484298
  1127     1713.3322                  0.00000000000000
  1128     1717.1999                  0.00000000000000
  1129     2923.4162                  0.00000000000000
  1130     2934.2883                  0.00000000000354
  1131     2935.1876                  0.00000000001056
  1132     2936.0418                  0.00000000000702
  1133     2937.3507                  0.00000000000101
  1134     2938.0662                  0.00000000000101
  1135     2941.2190                  0.00000000000000
  1136     2944.0596                  0.00000000000000
  1137     2946.0504                  0.00000000094119
  1138     2946.6825                  0.00000000095298
  1139     2947.4383                  0.00000000001218
  1140     2954.3294                  0.00000000000000
  1141     2960.1468                  0.00000000000000
  1142     2965.1051                  0.00000000000000
  1143     2972.9905                  0.00000000000000
  1144     2986.4719                  0.00000000000000
  1145     2997.6475                  0.00000000000000
  1146     3001.3223                  0.00000000000000
  1147     3009.4180                  0.00000000000000
  1148     3022.9460                  0.00000000000000
  1149     3028.6192                  0.00000000000000
  1150     3041.8044                  0.00000000000000
  1151     3044.5679                  0.00000000000000
  1152     3047.2501                  0.00000000000000
  1153     3050.4062                  0.00000000000000
  1154     3051.6499                  0.00000000000000
  1155     3054.6364                  0.00000000000000
  1156     3056.0298                  0.00000000000000
  1157     3060.3210                  0.00000000029022
  1158     3060.6745                  0.00000000028824
  1159     3061.1751                  0.00000000002658
  1160     3061.7791                  0.00000000000480
  1161     3073.7253                  0.00000000000000
  1162     3075.0559                  0.00000000000000
  1163     3081.1049                  0.00000000000000
  1164     3082.6056                  0.00000000000000
  1165     3084.2394                  0.00000000000631
  1166     3084.6325                  0.00000000000631
  1167     3085.8672                  0.00000000000067
  1168     3086.7338                  0.00000000120062
  1169     3087.2732                  0.00000000119953
  1170     3093.3631                  0.00000000000000
  1171     3094.2140                  0.00000000000000
  1172     3101.5827                  0.00000000747778
  1173     3102.2989                  0.00000000747433
  1174     3103.6823                  0.00000000858759
  1175     3104.3079                  0.00000000858413
  1176     3113.0041                  0.00000000000000
  1177     3118.5035                  0.00000000026097
  1178     3118.9532                  0.00000006997703
  1179     3119.0548                  0.00000007021045
  1180     3124.6004                  0.00000000000000
  1181     3146.1314                  0.00000000000000
  1182     3158.5105                  0.00000000000000
  1183     3166.0913                  0.00000000000000
  1184     3171.4066                  0.00000000000000
  1185     3172.6078                  0.00000000000000
  1186     3174.7126                  0.00000000000000
  1187     3186.2133                  0.00000000000000
  1188     3189.4997                  0.00000000000000
  1189     3193.2326                  0.00000000507771
  1190     3193.7654                  0.00000000507602
  1191     3195.6160                  0.00000000000000
  1192     3213.3931                  0.00000000000000
  1193     3215.3337                  0.00000000000000
  1194     3230.7577                  0.00000000000000
  1195     3234.0135                  0.00000000000000
  1196     3245.1241                  0.00000000000000
  1197     3246.5687                  0.00000000000000
  1198     3252.4498                  0.00000000488008
  1199     3253.3664                  0.00000000487733
  1200     3338.6612                  0.00000000000000
--------------------------------------------------------------------------------
  Thermal conductivity =     0.094117 W/(m.K) 
--------------------------------------------------------------------------------

--------------------------------------------------------------------------------
  Phonon properties (per mole of unit cells): Temperature = 100000.000 K
--------------------------------------------------------------------------------
  Zero point energy            =       77.765910 eV
  Entropy                      =        0.559580 eV/K
                               =    53990.865557 J/(mol.K)
  Helmholtz free-energy        =   -47656.849440 eV
                               = -4598157.067106 kJmol-1
  Free energy (equipartition)  =   -47656.987773 eV
  - T*S       (equipartition)  =   -55957.814246 eV
  Uvib        (equipartition)  =    10306.333994 eV
  Mean kinetic energy          =     5170.540002 eV
  Heat capacity - const volume =        0.103061 eV/K
                               =     9943.769038 J/(mol.K)
--------------------------------------------------------------------------------

  Phonon density of states : 

  Broadening factor =     0.0100

--------------------------------------------------------------------------------
 Frequency (cm-1) Density of States                                             
--------------------------------------------------------------------------------
    0.00000 |*****************                                             0.010
   54.47522 |***********************                                       0.014
  108.95045 |*****************************                                 0.017
  163.42567 |********************************                              0.019
  217.90090 |************************************                          0.021
  272.37612 |****************************************                      0.024
  326.85135 |*********************************************                 0.027
  381.32657 |**************************************************            0.029
  435.80179 |****************************************************          0.031
  490.27702 |*****************************************************         0.031
  544.75224 |*****************************************************         0.032
  599.22747 |******************************************************        0.032
  653.70269 |*******************************************************       0.033
  708.17791 |*******************************************************       0.033
  762.65314 |******************************************************        0.032
  817.12836 |****************************************************          0.031
  871.60359 |*****************************************************         0.031
  926.07881 |******************************************************        0.032
  980.55404 |*****************************************************         0.031
 1035.02926 |******************************************************        0.032
 1089.50448 |******************************************************        0.032
 1143.97971 |*****************************************************         0.032
 1198.45493 |****************************************************          0.031
 1252.93016 |**************************************************            0.030
 1307.40538 |*****************************************************         0.031
 1361.88061 |*********************************************************     0.034
 1416.35583 |************************************************************  0.035
 1470.83105 |**********************************************************    0.034
 1525.30628 |***************************************************           0.030
 1579.78150 |*****************************************                     0.024
 1634.25673 |********************************                              0.019
 1688.73195 |************************                                      0.015
 1743.20717 |*****************                                             0.010
 1797.68240 |************                                                  0.007
 1852.15762 |*********                                                     0.005
 1906.63285 |*******                                                       0.004
 1961.10807 |*****                                                         0.003
 2015.58330 |****                                                          0.003
 2070.05852 |****                                                          0.002
 2124.53374 |***                                                           0.002
 2179.00897 |***                                                           0.002
 2233.48419 |**                                                            0.002
 2287.95942 |**                                                            0.001
 2342.43464 |**                                                            0.001
 2396.90987 |**                                                            0.001
 2451.38509 |**                                                            0.001
 2505.86031 |**                                                            0.001
 2560.33554 |**                                                            0.001
 2614.81076 |**                                                            0.001
 2669.28599 |**                                                            0.001
 2723.76121 |**                                                            0.002
 2778.23643 |***                                                           0.002
 2832.71166 |****                                                          0.003
 2887.18688 |******                                                        0.004
 2941.66211 |*********                                                     0.006
 2996.13733 |***********                                                   0.007
 3050.61256 |*************                                                 0.008
 3105.08778 |*************                                                 0.008
 3159.56300 |***********                                                   0.007
 3214.03823 |*********                                                     0.006
 3268.51345 |*******                                                       0.004
 3322.98868 |****                                                          0.003
 3377.46390 |***                                                           0.002
 3431.93913 |**                                                            0.001
--------------------------------------------------------------------------------



  Time to end of optimisation =     419.1160 seconds


  Peak dynamic memory used =      30.77 MB 


  Timing analysis for GULP :

--------------------------------------------------------------------------------
  Task / Subroutine                                          Time (Seconds)
--------------------------------------------------------------------------------
  Calculation of real space energy and derivatives              269.3760
  Calculation of three-body energy and derivatives               12.6880
  Calculation of four-body energy and derivatives                 6.0760
  Calculation of Bond Order energy and derivatives               14.1040
  Calculation of molecules and connectivity                       4.6560
  Calculation of phonons                                         66.1000
  Calculation of scattering                                       0.0000
  Calculation of matrix inversion                                42.1440
--------------------------------------------------------------------------------
  Total CPU time                                                419.1160
--------------------------------------------------------------------------------


  LAMMPS file written on channel 26


  Job Finished at 11:39.22 15th July       2013                               

