********************************************************************************
*                       GENERAL UTILITY LATTICE PROGRAM                        *
*                                 Julian Gale                                  *
*                      Nanochemistry Research Institute                        *
*                           Department of Chemistry                            *
*                    Curtin University, Western Australia                      *
********************************************************************************
* Version = 4.1.0 * Last modified =  21st June 2013                            *
********************************************************************************
*  optimise     - perform optimisation run                                     *
*  phonon       - calculate phonons for final geometry                         *
*  thermal      - calculate thermal conductivity for final geometry            *
*  molecule     - molecule option activated, Coulomb subtract within molecule  *
*  compare      - compare initial and final structures                         *
*  broaden_dos  - broaden density of states curves                             *
********************************************************************************

  Job Started  at 11:27.44  9th July       2013                               

  Number of CPUs =     1


  Total number of configurations input =   1

********************************************************************************
*  Input for Configuration =   1                                               *
********************************************************************************

  Formula = C312O8H80                                                   

  Number of irreducible atoms/shells =     400


  Total number atoms/shells =     400

  Dimensionality = 3               :  Bulk   



  Cartesian lattice vectors (Angstroms) :

       13.757000    0.000000    0.000000
        0.000000   16.634000    0.000000
       -5.030695    0.000000   18.401740

  Cell parameters (Angstroms/Degrees):

  a =      13.7570    alpha =  90.0000
  b =      16.6340    beta  = 105.2900
  c =      19.0770    gamma =  90.0000

  Initial cell volume =        4210.942670 Angs**3

  Temperature of configuration =  10.00     K 

  Pressure of configuration =         0.000 GPa 

  Fractional coordinates of asymmetric unit :

--------------------------------------------------------------------------------
   No.  Atomic       x           y          z         Charge      Occupancy
        Label      (Frac)      (Frac)     (Frac)        (e)         (Frac)  
--------------------------------------------------------------------------------
      1 C1    c    0.215559    0.184381    0.392082     0.00000    1.000000    
      2 C1    c    0.165164 *  0.126488 *  0.323448 *   0.00000    1.000000    
      3 C1    c    0.083390 *  0.072743 *  0.333990 *   0.00000    1.000000    
      4 C1    c    0.059361 *  0.064386 *  0.399473 *   0.00000    1.000000    
      5 C1    c    0.105190 *  0.116689 *  0.461587 *   0.00000    1.000000    
      6 C1    c    0.172979 *  0.175243 *  0.455935 *   0.00000    1.000000    
      7 C1    c    0.164479 *  0.254479 *  0.484574 *   0.00000    1.000000    
      8 C1    c    0.187314 *  0.313635 *  0.435502 *   0.00000    1.000000    
      9 C1    c    0.209709 *  0.271492 *  0.375291 *   0.00000    1.000000    
     10 C1    c    0.176470 *  0.303114 *  0.306656 *   0.00000    1.000000    
     11 C1    c    0.129688 *  0.250631 *  0.244325 *   0.00000    1.000000    
     12 C1    c    0.120267 *  0.169232 *  0.253943 *   0.00000    1.000000    
     13 C1    c    0.026815 *  0.129975 *  0.218240 *   0.00000    1.000000    
     14 C1    c    0.003988 *  0.071300 *  0.267529 *   0.00000    1.000000    
     15 C1    c    0.904692 *  0.056631 *  0.266931 *   0.00000    1.000000    
     16 C1    c    0.879535 *  0.045690 *  0.335294 *   0.00000    1.000000    
     17 C1    c    0.955097 *  0.050619 *  0.399799 *   0.00000    1.000000    
     18 C1    c    0.936205 *  0.092822 *  0.461641 *   0.00000    1.000000    
     19 C1    c    0.028026 *  0.134003 *  0.499246 *   0.00000    1.000000    
     20 C1    c    0.023156 *  0.209330 *  0.529461 *   0.00000    1.000000    
     21 C1    c    0.092542 *  0.271492 *  0.522016 *   0.00000    1.000000    
     22 C1    c    0.040335 *  0.347902 *  0.511636 *   0.00000    1.000000    
     23 C1    c    0.062358 *  0.404232 *  0.464521 *   0.00000    1.000000    
     24 C1    c    0.137837 *  0.387459 *  0.425829 *   0.00000    1.000000    
     25 C1    c    0.104720 *  0.420644 *  0.354151 *   0.00000    1.000000    
     26 C1    c    0.122358 *  0.378923 *  0.295244 *   0.00000    1.000000    
     27 C1    c    0.044388 *  0.374233 *  0.227533 *   0.00000    1.000000    
     28 C1    c    0.049238 *  0.295659 *  0.196666 *   0.00000    1.000000    
     29 C1    c    0.960603 *  0.256523 *  0.159822 *   0.00000    1.000000    
     30 C1    c    0.949452 *  0.172177 *  0.171071 *   0.00000    1.000000    
     31 C1    c    0.845253 *  0.157569 *  0.171179 *   0.00000    1.000000    
     32 C1    c    0.823501 *  0.100757 *  0.218240 *   0.00000    1.000000    
     33 C1    c    0.748148 *  0.117651 *  0.256878 *   0.00000    1.000000    
     34 C1    c    0.782521 *  0.084225 *  0.329208 *   0.00000    1.000000    
     35 C1    c    0.764347 *  0.124444 *  0.387844 *   0.00000    1.000000    
     36 C1    c    0.843104 *  0.129434 *  0.455718 *   0.00000    1.000000    
     37 C1    c    0.837844 *  0.207827 *  0.486856 *   0.00000    1.000000    
     38 C1    c    0.926248 *  0.247565 *  0.523266 *   0.00000    1.000000    
     39 C1    c    0.936772 *  0.333053 *  0.512289 *   0.00000    1.000000    
     40 C1    c    0.858767 *  0.375436 *  0.465554 *   0.00000    1.000000    
     41 C1    c    0.881899 *  0.434712 *  0.416102 *   0.00000    1.000000    
     42 C1    c    0.981563 *  0.448900 *  0.415722 *   0.00000    1.000000    
     43 C1    c    0.007864 *  0.458879 *  0.347304 *   0.00000    1.000000    
     44 C1    c    0.933286 *  0.454310 *  0.282310 *   0.00000    1.000000    
     45 C1    c    0.951815 *  0.411747 *  0.221066 *   0.00000    1.000000    
     46 C1    c    0.859214 *  0.370867 *  0.182917 *   0.00000    1.000000    
     47 C1    c    0.863767 *  0.295840 *  0.153029 *   0.00000    1.000000    
     48 C1    c    0.792960 *  0.233738 *  0.160365 *   0.00000    1.000000    
     49 C1    c    0.720203 *  0.250150 *  0.197155 *   0.00000    1.000000    
     50 C1    c    0.697210 *  0.190994 *  0.246390 *   0.00000    1.000000    
     51 C1    c    0.678219 *  0.233438 *  0.307960 *   0.00000    1.000000    
     52 C1    c    0.711565 *  0.200733 *  0.377084 *   0.00000    1.000000    
     53 C1    c    0.756792 *  0.252495 *  0.438545 *   0.00000    1.000000    
     54 C1    c    0.767481 *  0.333774 *  0.427623 *   0.00000    1.000000    
     55 C1    c    0.733101 *  0.368041 *  0.355075 *   0.00000    1.000000    
     56 C1    c    0.689449 *  0.318685 *  0.296928 *   0.00000    1.000000    
     57 C1    c    0.715234 *  0.329025 *  0.228294 *   0.00000    1.000000    
     58 C1    c    0.783372 *  0.388061 *  0.221012 *   0.00000    1.000000    
     59 C1    c    0.829452 *  0.439642 *  0.283017 *   0.00000    1.000000    
     60 C1    c    0.804074 *  0.429842 *  0.348391 *   0.00000    1.000000    
     61 C1    c    0.284432 *  0.684381 *  0.107925 *   0.00000    1.000000    
     62 C1    c    0.334827 *  0.626488 *  0.176559 *   0.00000    1.000000    
     63 C1    c    0.416601 *  0.572743 *  0.166017 *   0.00000    1.000000    
     64 C1    c    0.440631 *  0.564386 *  0.100534 *   0.00000    1.000000    
     65 C1    c    0.394801 *  0.616689 *  0.038420 *   0.00000    1.000000    
     66 C1    c    0.327013 *  0.675243 *  0.044072 *   0.00000    1.000000    
     67 C1    c    0.335512 *  0.754479 *  0.015433 *   0.00000    1.000000    
     68 C1    c    0.312677 *  0.813635 *  0.064505 *   0.00000    1.000000    
     69 C1    c    0.290282 *  0.771492 *  0.124716 *   0.00000    1.000000    
     70 C1    c    0.323522 *  0.803114 *  0.193351 *   0.00000    1.000000    
     71 C1    c    0.370303 *  0.750631 *  0.255682 *   0.00000    1.000000    
     72 C1    c    0.379725 *  0.669232 *  0.246064 *   0.00000    1.000000    
     73 C1    c    0.473176 *  0.629975 *  0.281767 *   0.00000    1.000000    
     74 C1    c    0.496004 *  0.571300 *  0.232478 *   0.00000    1.000000    
     75 C1    c    0.595299 *  0.556631 *  0.233076 *   0.00000    1.000000    
     76 C1    c    0.620456 *  0.545690 *  0.164713 *   0.00000    1.000000    
     77 C1    c    0.544895 *  0.550619 *  0.100208 *   0.00000    1.000000    
     78 C1    c    0.563786 *  0.592822 *  0.038366 *   0.00000    1.000000    
     79 C1    c    0.471965 *  0.634003 *  0.000761 *   0.00000    1.000000    
     80 C1    c    0.476836 *  0.709330 *  0.970546 *   0.00000    1.000000    
     81 C1    c    0.407449 *  0.771492 *  0.977991 *   0.00000    1.000000    
     82 C1    c    0.459657 *  0.847902 *  0.988371 *   0.00000    1.000000    
     83 C1    c    0.437633 *  0.904232 *  0.035486 *   0.00000    1.000000    
     84 C1    c    0.362155 *  0.887459 *  0.074178 *   0.00000    1.000000    
     85 C1    c    0.395272 *  0.920644 *  0.145856 *   0.00000    1.000000    
     86 C1    c    0.377633 *  0.878923 *  0.204763 *   0.00000    1.000000    
     87 C1    c    0.455603 *  0.874233 *  0.272474 *   0.00000    1.000000    
     88 C1    c    0.450753 *  0.795659 *  0.303341 *   0.00000    1.000000    
     89 C1    c    0.539389 *  0.756523 *  0.340185 *   0.00000    1.000000    
     90 C1    c    0.550540 *  0.672177 *  0.328936 *   0.00000    1.000000    
     91 C1    c    0.654738 *  0.657569 *  0.328828 *   0.00000    1.000000    
     92 C1    c    0.676491 *  0.600757 *  0.281767 *   0.00000    1.000000    
     93 C1    c    0.751843 *  0.617651 *  0.243129 *   0.00000    1.000000    
     94 C1    c    0.717470 *  0.584225 *  0.170799 *   0.00000    1.000000    
     95 C1    c    0.735644 *  0.624444 *  0.112163 *   0.00000    1.000000    
     96 C1    c    0.656888 *  0.629434 *  0.044289 *   0.00000    1.000000    
     97 C1    c    0.662147 *  0.707827 *  0.013151 *   0.00000    1.000000    
     98 C1    c    0.573744 *  0.747565 *  0.976741 *   0.00000    1.000000    
     99 C1    c    0.563220 *  0.833053 *  0.987719 *   0.00000    1.000000    
    100 C1    c    0.641224 *  0.875436 *  0.034453 *   0.00000    1.000000    
    101 C1    c    0.618093 *  0.934712 *  0.083905 *   0.00000    1.000000    
    102 C1    c    0.518428 *  0.948900 *  0.084286 *   0.00000    1.000000    
    103 C1    c    0.492128 *  0.958879 *  0.152703 *   0.00000    1.000000    
    104 C1    c    0.566705 *  0.954310 *  0.217697 *   0.00000    1.000000    
    105 C1    c    0.548177 *  0.911747 *  0.278941 *   0.00000    1.000000    
    106 C1    c    0.640778 *  0.870867 *  0.317090 *   0.00000    1.000000    
    107 C1    c    0.636225 *  0.795840 *  0.346978 *   0.00000    1.000000    
    108 C1    c    0.707032 *  0.733738 *  0.339642 *   0.00000    1.000000    
    109 C1    c    0.779789 *  0.750150 *  0.302852 *   0.00000    1.000000    
    110 C1    c    0.802782 *  0.690994 *  0.253617 *   0.00000    1.000000    
    111 C1    c    0.821773 *  0.733438 *  0.192047 *   0.00000    1.000000    
    112 C1    c    0.788427 *  0.700733 *  0.122923 *   0.00000    1.000000    
    113 C1    c    0.743199 *  0.752495 *  0.061462 *   0.00000    1.000000    
    114 C1    c    0.732510 *  0.833774 *  0.072384 *   0.00000    1.000000    
    115 C1    c    0.766890 *  0.868041 *  0.144932 *   0.00000    1.000000    
    116 C1    c    0.810542 *  0.818685 *  0.203079 *   0.00000    1.000000    
    117 C1    c    0.784757 *  0.829025 *  0.271713 *   0.00000    1.000000    
    118 C1    c    0.716620 *  0.888061 *  0.278995 *   0.00000    1.000000    
    119 C1    c    0.670540 *  0.939642 *  0.216990 *   0.00000    1.000000    
    120 C1    c    0.695917 *  0.929842 *  0.151616 *   0.00000    1.000000    
    121 C1    c    0.784424 *  0.815619 *  0.607932 *   0.00000    1.000000    
    122 C1    c    0.834819 *  0.873512 *  0.676566 *   0.00000    1.000000    
    123 C1    c    0.916593 *  0.927257 *  0.666024 *   0.00000    1.000000    
    124 C1    c    0.940622 *  0.935614 *  0.600541 *   0.00000    1.000000    
    125 C1    c    0.894793 *  0.883311 *  0.538427 *   0.00000    1.000000    
    126 C1    c    0.827004 *  0.824757 *  0.544079 *   0.00000    1.000000    
    127 C1    c    0.835504 *  0.745521 *  0.515440 *   0.00000    1.000000    
    128 C1    c    0.812669 *  0.686365 *  0.564512 *   0.00000    1.000000    
    129 C1    c    0.790274 *  0.728508 *  0.624724 *   0.00000    1.000000    
    130 C1    c    0.823513 *  0.696886 *  0.693358 *   0.00000    1.000000    
    131 C1    c    0.870295 *  0.749369 *  0.755689 *   0.00000    1.000000    
    132 C1    c    0.879716 *  0.830768 *  0.746071 *   0.00000    1.000000    
    133 C1    c    0.973168 *  0.870025 *  0.781774 *   0.00000    1.000000    
    134 C1    c    0.995995 *  0.928700 *  0.732485 *   0.00000    1.000000    
    135 C1    c    0.095291 *  0.943369 *  0.733083 *   0.00000    1.000000    
    136 C1    c    0.120448 *  0.954310 *  0.664720 *   0.00000    1.000000    
    137 C1    c    0.044886 *  0.949381 *  0.600215 *   0.00000    1.000000    
    138 C1    c    0.063778 *  0.907178 *  0.538373 *   0.00000    1.000000    
    139 C1    c    0.971957 *  0.865997 *  0.500768 *   0.00000    1.000000    
    140 C1    c    0.976827 *  0.790670 *  0.470553 *   0.00000    1.000000    
    141 C1    c    0.907441 *  0.728508 *  0.477998 *   0.00000    1.000000    
    142 C1    c    0.959648 *  0.652098 *  0.488378 *   0.00000    1.000000    
    143 C1    c    0.937625 *  0.595768 *  0.535493 *   0.00000    1.000000    
    144 C1    c    0.862146 *  0.612541 *  0.574185 *   0.00000    1.000000    
    145 C1    c    0.895263 *  0.579356 *  0.645863 *   0.00000    1.000000    
    146 C1    c    0.877625 *  0.621077 *  0.704770 *   0.00000    1.000000    
    147 C1    c    0.955595 *  0.625767 *  0.772481 *   0.00000    1.000000    
    148 C1    c    0.950745 *  0.704341 *  0.803348 *   0.00000    1.000000    
    149 C1    c    0.039380 *  0.743477 *  0.840192 *   0.00000    1.000000    
    150 C1    c    0.050531 *  0.827823 *  0.828943 *   0.00000    1.000000    
    151 C1    c    0.154730 *  0.842431 *  0.828835 *   0.00000    1.000000    
    152 C1    c    0.176482 *  0.899243 *  0.781774 *   0.00000    1.000000    
    153 C1    c    0.251835 *  0.882349 *  0.743136 *   0.00000    1.000000    
    154 C1    c    0.217462 *  0.915775 *  0.670806 *   0.00000    1.000000    
    155 C1    c    0.235636 *  0.875556 *  0.612170 *   0.00000    1.000000    
    156 C1    c    0.156879 *  0.870566 *  0.544296 *   0.00000    1.000000    
    157 C1    c    0.162139 *  0.792173 *  0.513158 *   0.00000    1.000000    
    158 C1    c    0.073735 *  0.752435 *  0.476748 *   0.00000    1.000000    
    159 C1    c    0.063211 *  0.666947 *  0.487726 *   0.00000    1.000000    
    160 C1    c    0.141216 *  0.624564 *  0.534460 *   0.00000    1.000000    
    161 C1    c    0.118084 *  0.565288 *  0.583912 *   0.00000    1.000000    
    162 C1    c    0.018420 *  0.551100 *  0.584293 *   0.00000    1.000000    
    163 C1    c    0.992119 *  0.541121 *  0.652710 *   0.00000    1.000000    
    164 C1    c    0.066697 *  0.545690 *  0.717704 *   0.00000    1.000000    
    165 C1    c    0.048168 *  0.588253 *  0.778948 *   0.00000    1.000000    
    166 C1    c    0.140769 *  0.629133 *  0.817097 *   0.00000    1.000000    
    167 C1    c    0.136216 *  0.704160 *  0.846985 *   0.00000    1.000000    
    168 C1    c    0.207023 *  0.766262 *  0.839649 *   0.00000    1.000000    
    169 C1    c    0.279780 *  0.749850 *  0.802859 *   0.00000    1.000000    
    170 C1    c    0.302773 *  0.809006 *  0.753624 *   0.00000    1.000000    
    171 C1    c    0.321764 *  0.766562 *  0.692054 *   0.00000    1.000000    
    172 C1    c    0.288418 *  0.799267 *  0.622930 *   0.00000    1.000000    
    173 C1    c    0.243191 *  0.747505 *  0.561469 *   0.00000    1.000000    
    174 C1    c    0.232502 *  0.666226 *  0.572392 *   0.00000    1.000000    
    175 C1    c    0.266882 *  0.631959 *  0.644939 *   0.00000    1.000000    
    176 C1    c    0.310533 *  0.681315 *  0.703086 *   0.00000    1.000000    
    177 C1    c    0.284749 *  0.670975 *  0.771720 *   0.00000    1.000000    
    178 C1    c    0.216611 *  0.611939 *  0.779002 *   0.00000    1.000000    
    179 C1    c    0.170531 *  0.560358 *  0.716997 *   0.00000    1.000000    
    180 C1    c    0.195909 *  0.570158 *  0.651623 *   0.00000    1.000000    
    181 C1    c    0.715551 *  0.315619 *  0.892090 *   0.00000    1.000000    
    182 C1    c    0.665156 *  0.373512 *  0.823455 *   0.00000    1.000000    
    183 C1    c    0.583382 *  0.427257 *  0.833997 *   0.00000    1.000000    
    184 C1    c    0.559352 *  0.435614 *  0.899480 *   0.00000    1.000000    
    185 C1    c    0.605182 *  0.383311 *  0.961594 *   0.00000    1.000000    
    186 C1    c    0.672970 *  0.324757 *  0.955942 *   0.00000    1.000000    
    187 C1    c    0.664471 *  0.245521 *  0.984581 *   0.00000    1.000000    
    188 C1    c    0.687306 *  0.186365 *  0.935509 *   0.00000    1.000000    
    189 C1    c    0.709701 *  0.228508 *  0.875298 *   0.00000    1.000000    
    190 C1    c    0.676461 *  0.196886 *  0.806663 *   0.00000    1.000000    
    191 C1    c    0.629680 *  0.249369 *  0.744332 *   0.00000    1.000000    
    192 C1    c    0.620258 *  0.330768 *  0.753950 *   0.00000    1.000000    
    193 C1    c    0.526807 *  0.370025 *  0.718247 *   0.00000    1.000000    
    194 C1    c    0.503979 *  0.428700 *  0.767536 *   0.00000    1.000000    
    195 C1    c    0.404684 *  0.443369 *  0.766938 *   0.00000    1.000000    
    196 C1    c    0.379527 *  0.454310 *  0.835301 *   0.00000    1.000000    
    197 C1    c    0.455088 *  0.449381 *  0.899806 *   0.00000    1.000000    
    198 C1    c    0.436197 *  0.407178 *  0.961648 *   0.00000    1.000000    
    199 C1    c    0.528018 *  0.365997 *  0.999253 *   0.00000    1.000000    
    200 C1    c    0.523147 *  0.290670 *  0.029468 *   0.00000    1.000000    
    201 C1    c    0.592534 *  0.228508 *  0.022023 *   0.00000    1.000000    
    202 C1    c    0.540326 *  0.152098 *  0.011643 *   0.00000    1.000000    
    203 C1    c    0.562350 *  0.095768 *  0.964528 *   0.00000    1.000000    
    204 C1    c    0.637828 *  0.112541 *  0.925836 *   0.00000    1.000000    
    205 C1    c    0.604711 *  0.079356 *  0.854158 *   0.00000    1.000000    
    206 C1    c    0.622350 *  0.121077 *  0.795251 *   0.00000    1.000000    
    207 C1    c    0.544380 *  0.125767 *  0.727540 *   0.00000    1.000000    
    208 C1    c    0.549230 *  0.204341 *  0.696673 *   0.00000    1.000000    
    209 C1    c    0.460594 *  0.243477 *  0.659829 *   0.00000    1.000000    
    210 C1    c    0.449443 *  0.327823 *  0.671078 *   0.00000    1.000000    
    211 C1    c    0.345245 *  0.342431 *  0.671187 *   0.00000    1.000000    
    212 C1    c    0.323492 *  0.399243 *  0.718247 *   0.00000    1.000000    
    213 C1    c    0.248140 *  0.382349 *  0.756885 *   0.00000    1.000000    
    214 C1    c    0.282513 *  0.415775 *  0.829215 *   0.00000    1.000000    
    215 C1    c    0.264339 *  0.375556 *  0.887851 *   0.00000    1.000000    
    216 C1    c    0.343095 *  0.370566 *  0.955725 *   0.00000    1.000000    
    217 C1    c    0.337836 *  0.292173 *  0.986863 *   0.00000    1.000000    
    218 C1    c    0.426239 *  0.252435 *  0.023273 *   0.00000    1.000000    
    219 C1    c    0.436763 *  0.166947 *  0.012296 *   0.00000    1.000000    
    220 C1    c    0.358759 *  0.124564 *  0.965561 *   0.00000    1.000000    
    221 C1    c    0.381890 *  0.065288 *  0.916109 *   0.00000    1.000000    
    222 C1    c    0.481555 *  0.051100 *  0.915729 *   0.00000    1.000000    
    223 C1    c    0.507855 *  0.041121 *  0.847311 *   0.00000    1.000000    
    224 C1    c    0.433278 *  0.045690 *  0.782317 *   0.00000    1.000000    
    225 C1    c    0.451806 *  0.088253 *  0.721073 *   0.00000    1.000000    
    226 C1    c    0.359205 *  0.129133 *  0.682925 *   0.00000    1.000000    
    227 C1    c    0.363758 *  0.204160 *  0.653036 *   0.00000    1.000000    
    228 C1    c    0.292951 *  0.266262 *  0.660372 *   0.00000    1.000000    
    229 C1    c    0.220194 *  0.249850 *  0.697162 *   0.00000    1.000000    
    230 C1    c    0.197201 *  0.309006 *  0.746397 *   0.00000    1.000000    
    231 C1    c    0.178210 *  0.266562 *  0.807967 *   0.00000    1.000000    
    232 C1    c    0.211556 *  0.299267 *  0.877091 *   0.00000    1.000000    
    233 C1    c    0.256784 *  0.247505 *  0.938553 *   0.00000    1.000000    
    234 C1    c    0.267473 *  0.166226 *  0.927630 *   0.00000    1.000000    
    235 C1    c    0.233093 *  0.131959 *  0.855082 *   0.00000    1.000000    
    236 C1    c    0.189441 *  0.181315 *  0.796935 *   0.00000    1.000000    
    237 C1    c    0.215226 *  0.170975 *  0.728301 *   0.00000    1.000000    
    238 C1    c    0.283363 *  0.111939 *  0.721019 *   0.00000    1.000000    
    239 C1    c    0.329443 *  0.060358 *  0.783024 *   0.00000    1.000000    
    240 C1    c    0.304066 *  0.070158 *  0.848398 *   0.00000    1.000000    
    241 C7    c    0.275900 *  0.121678 *  0.363879 *  -0.03000    1.000000    
    242 C3    c    0.310337 *  0.049297 *  0.410939 *   0.00000    1.000000    
    243 C2    c    0.358595 *  0.059036 *  0.484465 *  -0.11500    1.000000    
    244 C2    c    0.393803 *  0.992485 *  0.528265 *  -0.11500    1.000000    
    245 C2    c    0.381802 *  0.916196 *  0.498431 *  -0.11500    1.000000    
    246 C2    c    0.334721 *  0.905855 *  0.425340 *  -0.11500    1.000000    
    247 O1    c    0.301640 *  0.250090 *  0.167702 *  -0.50000    1.000000    
    248 O2    c    0.466795 *  0.279127 *  0.194547 *  -0.17000    1.000000    
    249 C2    c    0.298397 *  0.971925 *  0.381866 *  -0.11500    1.000000    
    250 C5    c    0.351060 *  0.153361 *  0.323719 *  -0.12000    1.000000    
    251 C5    c    0.353426 *  0.105627 *  0.255845 *  -0.12000    1.000000    
    252 C5    c    0.423266 *  0.145786 *  0.215251 *  -0.12000    1.000000    
    253 C4    c    0.388716 *  0.229470 *  0.190145 *   0.70000    1.000000    
    254 C6    c    0.441468 *  0.362330 *  0.173788 *  -0.18000    1.000000    
    255 H1    c    0.366860 *  0.116088 *  0.504681 *   0.11500    1.000000    
    256 H1    c    0.431708 *  0.001503 *  0.581630 *   0.11500    1.000000    
    257 H1    c    0.410820 *  0.868522 *  0.529678 *   0.11500    1.000000    
    258 H1    c    0.322370 *  0.851689 *  0.402299 *   0.11500    1.000000    
    259 H1    c    0.260922 *  0.958278 *  0.328882 *   0.11500    1.000000    
    260 H2    c    0.332234 *  0.210713 *  0.309210 *   0.06000    1.000000    
    261 H2    c    0.425284 *  0.154082 *  0.361705 *   0.06000    1.000000    
    262 H2    c    0.280888 *  0.102381 *  0.218892 *   0.06000    1.000000    
    263 H2    c    0.377063 *  0.048515 *  0.270790 *   0.06000    1.000000    
    264 H2    c    0.492884 *  0.149092 *  0.246607 *   0.06000    1.000000    
    265 H2    c    0.425221 *  0.115607 *  0.169114 *   0.06000    1.000000    
    266 H2    c    0.391978 *  0.364915 *  0.127705 *   0.06000    1.000000    
    267 H2    c    0.410207 *  0.387880 *  0.214328 *   0.06000    1.000000    
    268 H2    c    0.510012 *  0.386317 *  0.170799 *   0.06000    1.000000    
    269 C7    c    0.224091 *  0.621678 *  0.136128 *  -0.03000    1.000000    
    270 C3    c    0.189654 *  0.549297 *  0.089068 *   0.00000    1.000000    
    271 C2    c    0.141396 *  0.559036 *  0.015542 *  -0.11500    1.000000    
    272 C2    c    0.106189 *  0.492485 *  0.971742 *  -0.11500    1.000000    
    273 C2    c    0.118189 *  0.416196 *  0.001576 *  -0.11500    1.000000    
    274 C2    c    0.165270 *  0.405855 *  0.074667 *  -0.11500    1.000000    
    275 O1    c    0.198352 *  0.750090 *  0.332306 *  -0.50000    1.000000    
    276 O2    c    0.033196 *  0.779127 *  0.305460 *  -0.17000    1.000000    
    277 C2    c    0.201594 *  0.471925 *  0.118141 *  -0.11500    1.000000    
    278 C5    c    0.148931 *  0.653361 *  0.176288 *  -0.12000    1.000000    
    279 C5    c    0.146566 *  0.605627 *  0.244162 *  -0.12000    1.000000    
    280 C5    c    0.076726 *  0.645786 *  0.284756 *  -0.12000    1.000000    
    281 C4    c    0.111276 *  0.729470 *  0.309862 *   0.70000    1.000000    
    282 C6    c    0.058524 *  0.862330 *  0.326219 *  -0.18000    1.000000    
    283 H1    c    0.133131 *  0.616088 *  0.995327 *   0.11500    1.000000    
    284 H1    c    0.068284 *  0.501503 *  0.918377 *   0.11500    1.000000    
    285 H1    c    0.089172 *  0.368522 *  0.970329 *   0.11500    1.000000    
    286 H1    c    0.177622 *  0.351689 *  0.097708 *   0.11500    1.000000    
    287 H1    c    0.239069 *  0.458278 *  0.171125 *   0.11500    1.000000    
    288 H2    c    0.167758 *  0.710713 *  0.190797 *   0.06000    1.000000    
    289 H2    c    0.074708 *  0.654082 *  0.138302 *   0.06000    1.000000    
    290 H2    c    0.219103 *  0.602381 *  0.281115 *   0.06000    1.000000    
    291 H2    c    0.122928 *  0.548515 *  0.229217 *   0.06000    1.000000    
    292 H2    c    0.007107 *  0.649092 *  0.253400 *   0.06000    1.000000    
    293 H2    c    0.074771 *  0.615607 *  0.330893 *   0.06000    1.000000    
    294 H2    c    0.108013 *  0.864915 *  0.372302 *   0.06000    1.000000    
    295 H2    c    0.089785 *  0.887880 *  0.285680 *   0.06000    1.000000    
    296 H2    c    0.989979 *  0.886317 *  0.329208 *   0.06000    1.000000    
    297 C7    c    0.724083 *  0.878322 *  0.636135 *  -0.03000    1.000000    
    298 C3    c    0.689646 *  0.950703 *  0.589075 *   0.00000    1.000000    
    299 C2    c    0.641388 *  0.940964 *  0.515549 *  -0.11500    1.000000    
    300 C2    c    0.606180 *  0.007515 *  0.471749 *  -0.11500    1.000000    
    301 C2    c    0.618181 *  0.083804 *  0.501583 *  -0.11500    1.000000    
    302 C2    c    0.665262 *  0.094145 *  0.574674 *  -0.11500    1.000000    
    303 O1    c    0.698343 *  0.749910 *  0.832313 *  -0.50000    1.000000    
    304 O2    c    0.533187 *  0.720873 *  0.805467 *  -0.17000    1.000000    
    305 C2    c    0.701586 *  0.028075 *  0.618148 *  -0.11500    1.000000    
    306 C5    c    0.648923 *  0.846639 *  0.676295 *  -0.12000    1.000000    
    307 C5    c    0.646557 *  0.894373 *  0.744169 *  -0.12000    1.000000    
    308 C5    c    0.576717 *  0.854214 *  0.784763 *  -0.12000    1.000000    
    309 C4    c    0.611267 *  0.770530 *  0.809869 *   0.70000    1.000000    
    310 C6    c    0.558515 *  0.637670 *  0.826226 *  -0.18000    1.000000    
    311 H1    c    0.633123 *  0.883912 *  0.495334 *   0.11500    1.000000    
    312 H1    c    0.568275 *  0.998497 *  0.418384 *   0.11500    1.000000    
    313 H1    c    0.589163 *  0.131478 *  0.470336 *   0.11500    1.000000    
    314 H1    c    0.677613 *  0.148311 *  0.597715 *   0.11500    1.000000    
    315 H1    c    0.739061 *  0.041722 *  0.671132 *   0.11500    1.000000    
    316 H2    c    0.667749 *  0.789287 *  0.690804 *   0.06000    1.000000    
    317 H2    c    0.574699 *  0.845918 *  0.638309 *   0.06000    1.000000    
    318 H2    c    0.719095 *  0.897619 *  0.781122 *   0.06000    1.000000    
    319 H2    c    0.622920 *  0.951485 *  0.729225 *   0.06000    1.000000    
    320 H2    c    0.507099 *  0.850908 *  0.753407 *   0.06000    1.000000    
    321 H2    c    0.574762 *  0.884393 *  0.830900 *   0.06000    1.000000    
    322 H2    c    0.608005 *  0.635085 *  0.872309 *   0.06000    1.000000    
    323 H2    c    0.589776 *  0.612120 *  0.785687 *   0.06000    1.000000    
    324 H2    c    0.489971 *  0.613683 *  0.829215 *   0.06000    1.000000    
    325 C7    c    0.775892 *  0.378322 *  0.863886 *  -0.03000    1.000000    
    326 C3    c    0.810329 *  0.450703 *  0.910946 *   0.00000    1.000000    
    327 C2    c    0.858587 *  0.440964 *  0.984472 *  -0.11500    1.000000    
    328 C2    c    0.893794 *  0.507515 *  0.028272 *  -0.11500    1.000000    
    329 C2    c    0.881794 *  0.583804 *  0.998438 *  -0.11500    1.000000    
    330 C2    c    0.834712 *  0.594145 *  0.925347 *  -0.11500    1.000000    
    331 O1    c    0.801631 *  0.249910 *  0.667709 *  -0.50000    1.000000    
    332 O2    c    0.966787 *  0.220873 *  0.694554 *  -0.17000    1.000000    
    333 C2    c    0.798389 *  0.528075 *  0.881873 *  -0.11500    1.000000    
    334 C5    c    0.851052 *  0.346639 *  0.823726 *  -0.12000    1.000000    
    335 C5    c    0.853417 *  0.394373 *  0.755852 *  -0.12000    1.000000    
    336 C5    c    0.923257 *  0.354214 *  0.715258 *  -0.12000    1.000000    
    337 C4    c    0.888707 *  0.270530 *  0.690152 *   0.70000    1.000000    
    338 C6    c    0.941459 *  0.137670 *  0.673795 *  -0.18000    1.000000    
    339 H1    c    0.866852 *  0.383912 *  0.004688 *   0.11500    1.000000    
    340 H1    c    0.931699 *  0.498497 *  0.081637 *   0.11500    1.000000    
    341 H1    c    0.910811 *  0.631478 *  0.029685 *   0.11500    1.000000    
    342 H1    c    0.822361 *  0.648311 *  0.902306 *   0.11500    1.000000    
    343 H1    c    0.760914 *  0.541722 *  0.828889 *   0.11500    1.000000    
    344 H2    c    0.832225 *  0.289287 *  0.809217 *   0.06000    1.000000    
    345 H2    c    0.925275 *  0.345918 *  0.861712 *   0.06000    1.000000    
    346 H2    c    0.780880 *  0.397619 *  0.718899 *   0.06000    1.000000    
    347 H2    c    0.877055 *  0.451485 *  0.770797 *   0.06000    1.000000    
    348 H2    c    0.992875 *  0.350908 *  0.746614 *   0.06000    1.000000    
    349 H2    c    0.925212 *  0.384393 *  0.669122 *   0.06000    1.000000    
    350 H2    c    0.891970 *  0.135085 *  0.627712 *   0.06000    1.000000    
    351 H2    c    0.910198 *  0.112120 *  0.714335 *   0.06000    1.000000    
    352 H2    c    0.010004 *  0.113683 *  0.670806 *   0.06000    1.000000    
    353 H1    c    0.413867 *  0.392990 *  0.356923 *   0.11500    1.000000    
    354 H1    c    0.469344 *  0.269869 *  0.486965 *   0.11500    1.000000    
    355 C2    c    0.515983 *  0.410304 *  0.431427 *  -0.11500    1.000000    
    356 C2    c    0.540437 *  0.356799 *  0.488758 *  -0.11500    1.000000    
    357 C2    c    0.621268 *  0.371288 *  0.547992 *  -0.11500    1.000000    
    358 C2    c    0.677320 *  0.440964 *  0.550002 *  -0.11500    1.000000    
    359 C2    c    0.652212 *  0.495070 *  0.492671 *  -0.11500    1.000000    
    360 C2    c    0.572260 *  0.479560 *  0.433057 *  -0.11500    1.000000    
    361 H1    c    0.637502 *  0.336299 *  0.590596 *   0.11500    1.000000    
    362 H1    c    0.730878 *  0.452387 *  0.593694 *   0.11500    1.000000    
    363 H1    c    0.694216 *  0.549898 *  0.495823 *   0.11500    1.000000    
    364 H1    c    0.551400 *  0.520320 *  0.390126 *   0.11500    1.000000    
    365 H1    c    0.586116 *  0.607010 *  0.643091 *   0.11500    1.000000    
    366 H1    c    0.530639 *  0.730131 *  0.513049 *   0.11500    1.000000    
    367 C2    c    0.484000 *  0.589696 *  0.568588 *  -0.11500    1.000000    
    368 C2    c    0.459546 *  0.643201 *  0.511256 *  -0.11500    1.000000    
    369 C2    c    0.378715 *  0.628712 *  0.452022 *  -0.11500    1.000000    
    370 C2    c    0.322663 *  0.559036 *  0.450012 *  -0.11500    1.000000    
    371 C2    c    0.347771 *  0.504930 *  0.507343 *  -0.11500    1.000000    
    372 C2    c    0.427723 *  0.520440 *  0.566957 *  -0.11500    1.000000    
    373 H1    c    0.362481 *  0.663701 *  0.409418 *   0.11500    1.000000    
    374 H1    c    0.269105 *  0.547613 *  0.406320 *   0.11500    1.000000    
    375 H1    c    0.305767 *  0.450102 *  0.504191 *   0.11500    1.000000    
    376 H1    c    0.448583 *  0.479680 *  0.609888 *   0.11500    1.000000    
    377 H1    c    0.086124 *  0.892990 *  0.143084 *   0.11500    1.000000    
    378 H1    c    0.030647 *  0.769869 *  0.013042 *   0.11500    1.000000    
    379 C2    c    0.984009 *  0.910304 *  0.068580 *  -0.11500    1.000000    
    380 C2    c    0.959554 *  0.856799 *  0.011249 *  -0.11500    1.000000    
    381 C2    c    0.878724 *  0.871288 *  0.952015 *  -0.11500    1.000000    
    382 C2    c    0.822671 *  0.940964 *  0.950005 *  -0.11500    1.000000    
    383 C2    c    0.847780 *  0.995070 *  0.007336 *  -0.11500    1.000000    
    384 C2    c    0.927732 *  0.979560 *  0.066950 *  -0.11500    1.000000    
    385 H1    c    0.862490 *  0.836299 *  0.909411 *   0.11500    1.000000    
    386 H1    c    0.769113 *  0.952387 *  0.906313 *   0.11500    1.000000    
    387 H1    c    0.805775 *  0.049898 *  0.004184 *   0.11500    1.000000    
    388 H1    c    0.948592 *  0.020320 *  0.109881 *   0.11500    1.000000    
    389 H1    c    0.913859 *  0.107010 *  0.856930 *   0.11500    1.000000    
    390 H1    c    0.969336 *  0.230131 *  0.986972 *   0.11500    1.000000    
    391 C2    c    0.015974 *  0.089696 *  0.931434 *  -0.11500    1.000000    
    392 C2    c    0.040429 *  0.143201 *  0.988765 *  -0.11500    1.000000    
    393 C2    c    0.121259 *  0.128712 *  0.047999 *  -0.11500    1.000000    
    394 C2    c    0.177312 *  0.059036 *  0.050009 *  -0.11500    1.000000    
    395 C2    c    0.152203 *  0.004930 *  0.992678 *  -0.11500    1.000000    
    396 C2    c    0.072251 *  0.020440 *  0.933064 *  -0.11500    1.000000    
    397 H1    c    0.137493 *  0.163701 *  0.090603 *   0.11500    1.000000    
    398 H1    c    0.230870 *  0.047613 *  0.093701 *   0.11500    1.000000    
    399 H1    c    0.194208 *  0.950102 *  0.995830 *   0.11500    1.000000    
    400 H1    c    0.051391 *  0.979680 *  0.890133 *   0.11500    1.000000    
--------------------------------------------------------------------------------



  Molecule list generated from bond lengths :

  Total number of molecules =     8

--------------------------------------------------------------------------------
Molecule No./:  Atoms
Periodicity  :  
--------------------------------------------------------------------------------
     1  0    : C1   c     1 C1   c     2 C1   c     3 C1   c     4 C1   c     5
             : C1   c     6 C1   c     7 C1   c     8 C1   c     9 C1   c    10
             : C1   c    11 C1   c    12 C1   c    13 C1   c    14 C1   c    15
             : C1   c    16 C1   c    17 C1   c    18 C1   c    19 C1   c    20
             : C1   c    21 C1   c    22 C1   c    23 C1   c    24 C1   c    25
             : C1   c    26 C1   c    27 C1   c    28 C1   c    29 C1   c    30
             : C1   c    31 C1   c    32 C1   c    33 C1   c    34 C1   c    35
             : C1   c    36 C1   c    37 C1   c    38 C1   c    39 C1   c    40
             : C1   c    41 C1   c    42 C1   c    43 C1   c    44 C1   c    45
             : C1   c    46 C1   c    47 C1   c    48 C1   c    49 C1   c    50
             : C1   c    51 C1   c    52 C1   c    53 C1   c    54 C1   c    55
             : C1   c    56 C1   c    57 C1   c    58 C1   c    59 C1   c    60
             : C7   c   241 C3   c   242 C2   c   243 C2   c   244 C2   c   245
             : C2   c   246 O1   c   247 O2   c   248 C2   c   249 C5   c   250
             : C5   c   251 C5   c   252 C4   c   253 C6   c   254 H1   c   255
             : H1   c   256 H1   c   257 H1   c   258 H1   c   259 H2   c   260
             : H2   c   261 H2   c   262 H2   c   263 H2   c   264 H2   c   265
             : H2   c   266 H2   c   267 H2   c   268
     2  0    : C1   c    61 C1   c    62 C1   c    63 C1   c    64 C1   c    65
             : C1   c    66 C1   c    67 C1   c    68 C1   c    69 C1   c    70
             : C1   c    71 C1   c    72 C1   c    73 C1   c    74 C1   c    75
             : C1   c    76 C1   c    77 C1   c    78 C1   c    79 C1   c    80
             : C1   c    81 C1   c    82 C1   c    83 C1   c    84 C1   c    85
             : C1   c    86 C1   c    87 C1   c    88 C1   c    89 C1   c    90
             : C1   c    91 C1   c    92 C1   c    93 C1   c    94 C1   c    95
             : C1   c    96 C1   c    97 C1   c    98 C1   c    99 C1   c   100
             : C1   c   101 C1   c   102 C1   c   103 C1   c   104 C1   c   105
             : C1   c   106 C1   c   107 C1   c   108 C1   c   109 C1   c   110
             : C1   c   111 C1   c   112 C1   c   113 C1   c   114 C1   c   115
             : C1   c   116 C1   c   117 C1   c   118 C1   c   119 C1   c   120
             : C7   c   269 C3   c   270 C2   c   271 C2   c   272 C2   c   273
             : C2   c   274 O1   c   275 O2   c   276 C2   c   277 C5   c   278
             : C5   c   279 C5   c   280 C4   c   281 C6   c   282 H1   c   283
             : H1   c   284 H1   c   285 H1   c   286 H1   c   287 H2   c   288
             : H2   c   289 H2   c   290 H2   c   291 H2   c   292 H2   c   293
             : H2   c   294 H2   c   295 H2   c   296
     3  0    : C1   c   121 C1   c   122 C1   c   123 C1   c   124 C1   c   125
             : C1   c   126 C1   c   127 C1   c   128 C1   c   129 C1   c   130
             : C1   c   131 C1   c   132 C1   c   133 C1   c   134 C1   c   135
             : C1   c   136 C1   c   137 C1   c   138 C1   c   139 C1   c   140
             : C1   c   141 C1   c   142 C1   c   143 C1   c   144 C1   c   145
             : C1   c   146 C1   c   147 C1   c   148 C1   c   149 C1   c   150
             : C1   c   151 C1   c   152 C1   c   153 C1   c   154 C1   c   155
             : C1   c   156 C1   c   157 C1   c   158 C1   c   159 C1   c   160
             : C1   c   161 C1   c   162 C1   c   163 C1   c   164 C1   c   165
             : C1   c   166 C1   c   167 C1   c   168 C1   c   169 C1   c   170
             : C1   c   171 C1   c   172 C1   c   173 C1   c   174 C1   c   175
             : C1   c   176 C1   c   177 C1   c   178 C1   c   179 C1   c   180
             : C7   c   297 C3   c   298 C2   c   299 C2   c   300 C2   c   301
             : C2   c   302 O1   c   303 O2   c   304 C2   c   305 C5   c   306
             : C5   c   307 C5   c   308 C4   c   309 C6   c   310 H1   c   311
             : H1   c   312 H1   c   313 H1   c   314 H1   c   315 H2   c   316
             : H2   c   317 H2   c   318 H2   c   319 H2   c   320 H2   c   321
             : H2   c   322 H2   c   323 H2   c   324
     4  0    : C1   c   181 C1   c   182 C1   c   183 C1   c   184 C1   c   185
             : C1   c   186 C1   c   187 C1   c   188 C1   c   189 C1   c   190
             : C1   c   191 C1   c   192 C1   c   193 C1   c   194 C1   c   195
             : C1   c   196 C1   c   197 C1   c   198 C1   c   199 C1   c   200
             : C1   c   201 C1   c   202 C1   c   203 C1   c   204 C1   c   205
             : C1   c   206 C1   c   207 C1   c   208 C1   c   209 C1   c   210
             : C1   c   211 C1   c   212 C1   c   213 C1   c   214 C1   c   215
             : C1   c   216 C1   c   217 C1   c   218 C1   c   219 C1   c   220
             : C1   c   221 C1   c   222 C1   c   223 C1   c   224 C1   c   225
             : C1   c   226 C1   c   227 C1   c   228 C1   c   229 C1   c   230
             : C1   c   231 C1   c   232 C1   c   233 C1   c   234 C1   c   235
             : C1   c   236 C1   c   237 C1   c   238 C1   c   239 C1   c   240
             : C7   c   325 C3   c   326 C2   c   327 C2   c   328 C2   c   329
             : C2   c   330 O1   c   331 O2   c   332 C2   c   333 C5   c   334
             : C5   c   335 C5   c   336 C4   c   337 C6   c   338 H1   c   339
             : H1   c   340 H1   c   341 H1   c   342 H1   c   343 H2   c   344
             : H2   c   345 H2   c   346 H2   c   347 H2   c   348 H2   c   349
             : H2   c   350 H2   c   351 H2   c   352
     5  0    : C2   c   355 C2   c   356 C2   c   357 C2   c   358 C2   c   359
             : C2   c   360 H1   c   361 H1   c   362 H1   c   363 H1   c   364
     6  0    : C2   c   367 C2   c   368 C2   c   369 C2   c   370 C2   c   371
             : C2   c   372 H1   c   373 H1   c   374 H1   c   375 H1   c   376
     7  0    : C2   c   379 C2   c   380 C2   c   381 C2   c   382 C2   c   383
             : C2   c   384 H1   c   385 H1   c   386 H1   c   387 H1   c   388
     8  0    : C2   c   391 C2   c   392 C2   c   393 C2   c   394 C2   c   395
             : C2   c   396 H1   c   397 H1   c   398 H1   c   399 H1   c   400
--------------------------------------------------------------------------------

  Brillouin zone sampling points :

--------------------------------------------------------------------------------
  Point number          x          y          z            Weight
--------------------------------------------------------------------------------
        1           0.000000   0.000000   0.000000         1.0000
--------------------------------------------------------------------------------


********************************************************************************
*  General input information                                                   *
********************************************************************************

  Species output for all configurations : 

--------------------------------------------------------------------------------
  Species    Type    Atomic    Atomic    Charge       Radii (Angs)     Library
                     Number     Mass       (e)     Cova   Ionic  VDW   Symbol
--------------------------------------------------------------------------------
    C1       Core        6      12.01   0.000000   0.770  0.000  1.530          
    C7       Core        6      12.01  -0.030000   0.770  0.000  1.530          
    C3       Core        6      12.01   0.000000   0.770  0.000  1.530          
    C2       Core        6      12.01  -0.115000   0.770  0.000  1.530          
    O1       Core        8      16.00  -0.500000   0.730  0.000  1.360          
    O2       Core        8      16.00  -0.170000   0.730  0.000  1.360          
    C5       Core        6      12.01  -0.120000   0.770  0.000  1.530          
    C4       Core        6      12.01   0.700000   0.770  0.000  1.530          
    C6       Core        6      12.01  -0.180000   0.770  0.000  1.530          
    H1       Core        1       1.01   0.115000   0.370  0.000  1.080          
    H2       Core        1       1.01   0.060000   0.370  0.000  1.080          
--------------------------------------------------------------------------------


  Lattice summation method = Wolf et al

  Modified method - smoothed energy only / correct forces

  Eta    =     0.223000 Angstrom**-1
  Cutoff =    12.000000 Angstrom

  Time limit = Infinity

  Maximum range for interatomic potentials =    100000.000000 Angstroms

  Intramolecular potentials :

--------------------------------------------------------------------------------
Atom  Types   Potential         A         B         C         D     Cutoffs(Ang)
  1     2                                                            Min    Max 
--------------------------------------------------------------------------------
C2   c C2   c Harmonic       40.7      1.40      0.00      0.00     0.000 1 Bond
                                                                    single      
C2   c C3   c Harmonic       40.7      1.40      0.00      0.00     0.000 1 Bond
                                                                    single      
C3   c C7   c Harmonic       27.5      1.51      0.00      0.00     0.000 1 Bond
                                                                    single      
H1   c C2   c Harmonic       31.8      1.08      0.00      0.00     0.000 1 Bond
                                                                    single      
C5   c C7   c Harmonic       23.2      1.53      0.00      0.00     0.000 1 Bond
                                                                    single      
C5   c C5   c Harmonic       23.2      1.53      0.00      0.00     0.000 1 Bond
                                                                    single      
C1   c C7   c Harmonic       27.5      1.51      0.00      0.00     0.000 1 Bond
                                                                    single      
C4   c C5   c Harmonic       27.5      1.51      0.00      0.00     0.000 1 Bond
                                                                    single      
C6   c O2   c Harmonic       27.8      1.41      0.00      0.00     0.000 1 Bond
                                                                    single      
H2   c C5   c Harmonic       29.5      1.09      0.00      0.00     0.000 1 Bond
                                                                    single      
H2   c C6   c Harmonic       29.5      1.09      0.00      0.00     0.000 1 Bond
                                                                    single      
C4   c O1   c Harmonic       45.1      1.23      0.00      0.00     0.000 1 Bond
                                                                    single      
C4   c O2   c Harmonic       18.6      1.33      0.00      0.00     0.000 1 Bond
                                                                    single      
--------------------------------------------------------------------------------

  Intermolecular potentials :

--------------------------------------------------------------------------------
Atom  Types   Potential         A         B         C         D     Cutoffs(Ang)
  1     2                                                            Min    Max 
--------------------------------------------------------------------------------
C1   c C1   c Lenn/es 12  6 0.700E-01  3.55      0.00      0.00     0.000 12.000
C1   c C2   c Lenn/es 12  6 0.700E-01  3.55      0.00      0.00     0.000 12.000
C2   c C2   c Lenn/es 12  6 0.700E-01  3.55      0.00      0.00     0.000 12.000
C1   c C3   c Lenn/es 12  6 0.700E-01  3.55      0.00      0.00     0.000 12.000
C2   c C3   c Lenn/es 12  6 0.700E-01  3.55      0.00      0.00     0.000 12.000
C3   c C3   c Lenn/es 12  6 0.700E-01  3.55      0.00      0.00     0.000 12.000
C1   c C4   c Lenn/es 12  6 0.857E-01  3.65      0.00      0.00     0.000 12.000
C2   c C4   c Lenn/es 12  6 0.857E-01  3.65      0.00      0.00     0.000 12.000
C3   c C4   c Lenn/es 12  6 0.857E-01  3.65      0.00      0.00     0.000 12.000
C4   c C4   c Lenn/es 12  6 0.105      3.75      0.00      0.00     0.000 12.000
C1   c C5   c Lenn/es 12  6 0.680E-01  3.52      0.00      0.00     0.000 12.000
C2   c C5   c Lenn/es 12  6 0.680E-01  3.52      0.00      0.00     0.000 12.000
C3   c C5   c Lenn/es 12  6 0.680E-01  3.52      0.00      0.00     0.000 12.000
C4   c C5   c Lenn/es 12  6 0.832E-01  3.62      0.00      0.00     0.000 12.000
C5   c C5   c Lenn/es 12  6 0.660E-01  3.50      0.00      0.00     0.000 12.000
C1   c C6   c Lenn/es 12  6 0.680E-01  3.52      0.00      0.00     0.000 12.000
C2   c C6   c Lenn/es 12  6 0.680E-01  3.52      0.00      0.00     0.000 12.000
C3   c C6   c Lenn/es 12  6 0.680E-01  3.52      0.00      0.00     0.000 12.000
C4   c C6   c Lenn/es 12  6 0.832E-01  3.62      0.00      0.00     0.000 12.000
C5   c C6   c Lenn/es 12  6 0.660E-01  3.50      0.00      0.00     0.000 12.000
C6   c C6   c Lenn/es 12  6 0.660E-01  3.50      0.00      0.00     0.000 12.000
C1   c C7   c Lenn/es 12  6 0.680E-01  3.52      0.00      0.00     0.000 12.000
C2   c C7   c Lenn/es 12  6 0.680E-01  3.52      0.00      0.00     0.000 12.000
C3   c C7   c Lenn/es 12  6 0.680E-01  3.52      0.00      0.00     0.000 12.000
C4   c C7   c Lenn/es 12  6 0.832E-01  3.62      0.00      0.00     0.000 12.000
C5   c C7   c Lenn/es 12  6 0.660E-01  3.50      0.00      0.00     0.000 12.000
C6   c C7   c Lenn/es 12  6 0.660E-01  3.50      0.00      0.00     0.000 12.000
C7   c C7   c Lenn/es 12  6 0.660E-01  3.50      0.00      0.00     0.000 12.000
C1   c O1   c Lenn/es 12  6 0.121      3.24      0.00      0.00     0.000 12.000
C2   c O1   c Lenn/es 12  6 0.121      3.24      0.00      0.00     0.000 12.000
C3   c O1   c Lenn/es 12  6 0.121      3.24      0.00      0.00     0.000 12.000
C4   c O1   c Lenn/es 12  6 0.148      3.33      0.00      0.00     0.000 12.000
C5   c O1   c Lenn/es 12  6 0.118      3.22      0.00      0.00     0.000 12.000
C6   c O1   c Lenn/es 12  6 0.118      3.22      0.00      0.00     0.000 12.000
C7   c O1   c Lenn/es 12  6 0.118      3.22      0.00      0.00     0.000 12.000
O1   c O1   c Lenn/es 12  6 0.210      2.96      0.00      0.00     0.000 12.000
C1   c O2   c Lenn/es 12  6 0.990E-01  3.21      0.00      0.00     0.000 12.000
C2   c O2   c Lenn/es 12  6 0.990E-01  3.21      0.00      0.00     0.000 12.000
C3   c O2   c Lenn/es 12  6 0.990E-01  3.21      0.00      0.00     0.000 12.000
C4   c O2   c Lenn/es 12  6 0.121      3.30      0.00      0.00     0.000 12.000
C5   c O2   c Lenn/es 12  6 0.961E-01  3.19      0.00      0.00     0.000 12.000
C6   c O2   c Lenn/es 12  6 0.961E-01  3.19      0.00      0.00     0.000 12.000
C7   c O2   c Lenn/es 12  6 0.961E-01  3.19      0.00      0.00     0.000 12.000
O1   c O2   c Lenn/es 12  6 0.171      2.93      0.00      0.00     0.000 12.000
O2   c O2   c Lenn/es 12  6 0.140      2.90      0.00      0.00     0.000 12.000
H1   c C1   c Lenn/es 12  6 0.458E-01  2.93      0.00      0.00     0.000 12.000
H1   c C2   c Lenn/es 12  6 0.458E-01  2.93      0.00      0.00     0.000 12.000
H1   c C3   c Lenn/es 12  6 0.458E-01  2.93      0.00      0.00     0.000 12.000
H1   c C4   c Lenn/es 12  6 0.561E-01  3.01      0.00      0.00     0.000 12.000
H1   c C5   c Lenn/es 12  6 0.445E-01  2.91      0.00      0.00     0.000 12.000
H1   c C6   c Lenn/es 12  6 0.445E-01  2.91      0.00      0.00     0.000 12.000
H1   c C7   c Lenn/es 12  6 0.445E-01  2.91      0.00      0.00     0.000 12.000
H1   c O1   c Lenn/es 12  6 0.794E-01  2.68      0.00      0.00     0.000 12.000
H1   c O2   c Lenn/es 12  6 0.648E-01  2.65      0.00      0.00     0.000 12.000
H1   c H1   c Lenn/es 12  6 0.300E-01  2.42      0.00      0.00     0.000 12.000
H2   c C1   c Lenn/es 12  6 0.458E-01  2.98      0.00      0.00     0.000 12.000
H2   c C2   c Lenn/es 12  6 0.458E-01  2.98      0.00      0.00     0.000 12.000
H2   c C3   c Lenn/es 12  6 0.458E-01  2.98      0.00      0.00     0.000 12.000
H2   c C4   c Lenn/es 12  6 0.561E-01  3.06      0.00      0.00     0.000 12.000
H2   c C5   c Lenn/es 12  6 0.445E-01  2.96      0.00      0.00     0.000 12.000
H2   c C6   c Lenn/es 12  6 0.445E-01  2.96      0.00      0.00     0.000 12.000
H2   c C7   c Lenn/es 12  6 0.445E-01  2.96      0.00      0.00     0.000 12.000
H2   c O1   c Lenn/es 12  6 0.794E-01  2.72      0.00      0.00     0.000 12.000
H2   c O2   c Lenn/es 12  6 0.648E-01  2.69      0.00      0.00     0.000 12.000
H1   c H2   c Lenn/es 12  6 0.300E-01  2.46      0.00      0.00     0.000 12.000
H2   c H2   c Lenn/es 12  6 0.300E-01  2.50      0.00      0.00     0.000 12.000
--------------------------------------------------------------------------------

  Intramolecular Three-body potentials :

  Cosine Harmonic form:

--------------------------------------------------------------------------------
Atom    Atom    Atom           Force Constants            Theta     Cutoffs  
  1       2       3               (eV)                    (deg)  1-2  1-3  2-3
--------------------------------------------------------------------------------
C2    c C2    c C2    c                  5.4639184       120.000     Bonded
C3    c C2    c C2    c                  5.4639184       120.000     Bonded
C2    c C2    c C3    c                  5.4639184       120.000     Bonded
C3    c C2    c C7    c                  6.0710205       120.000     Bonded
C2    c H1    c C2    c                  3.0355102       120.000     Bonded
C2    c H1    c C3    c                  3.0355102       120.000     Bonded
C5    c C5    c C7    c                  5.0606292       112.700     Bonded
C5    c C5    c C5    c                  5.0606292       112.700     Bonded
C7    c C3    c C5    c                  5.4639184       114.000     Bonded
C7    c C1    c C5    c                  5.4639184       114.000     Bonded
C7    c C1    c C1    c                  3.4691546       109.500     Bonded
C5    c C4    c C5    c                  5.4639184       111.100     Bonded
C5    c H2    c C7    c                  3.2523324       110.700     Bonded
C5    c H2    c C5    c                  3.2523324       110.700     Bonded
C5    c H2    c C4    c                  3.0355102       109.500     Bonded
C6    c H2    c O2    c                  3.0355102       109.500     Bonded
C5    c H2    c H2    c                  2.8620525       107.800     Bonded
C6    c H2    c H2    c                  2.8620525       107.800     Bonded
C7    c C1    c C5    c                  5.4639184       111.100     Bonded
C7    c C1    c C3    c                  3.4691546       109.500     Bonded
C4    c C5    c O2    c                  7.0250380       111.400     Bonded
C4    c C5    c O1    c                  6.9383091       120.400     Bonded
C4    c O1    c O2    c                  7.1984957       123.400     Bonded
O2    c C4    c C6    c                  7.1984957       116.900     Bonded
C1    c C1    c C7    c                  6.0710205       120.000     Bonded
--------------------------------------------------------------------------------

  Intramolecular Four-body potentials :

  Standard form:

--------------------------------------------------------------------------------
         Atom Types             Force cst Sign Phase Phi0         Cutoffs
   1       2       3       4       (eV)                     1-2  2-3  3-4  4-1
--------------------------------------------------------------------------------
H1    c C2    c C2    c H1    c  0.3144     -   2     0.00  Bonded              
H1    c C2    c C2    c C2    c  0.3144     -   2     0.00  Bonded              
H1    c C2    c C2    c C3    c  0.3144     -   2     0.00  Bonded              
H1    c C2    c C3    c C7    c  0.3144     -   2     0.00  Bonded              
C7    c C5    c C5    c C5    c  0.2819E-01 +   1     0.00  Bonded              
C7    c C5    c C5    c C5    c  -.1084E-02 -   2     0.00  Bonded              
C7    c C5    c C5    c C5    c  0.4336E-02 +   3     0.00  Bonded              
C5    c C5    c C5    c H2    c  0.6505E-02 +   3     0.00  Bonded              
C7    c C5    c C5    c H2    c  0.6505E-02 +   3     0.00  Bonded              
H2    c C5    c C5    c H2    c  0.6505E-02 +   3     0.00  Bonded              
O1    c C4    c C5    c C5    c  -.6006E-02 +   1     0.00  Bonded              
O1    c C4    c C5    c C5    c  0.2663E-01 -   2     0.00  Bonded              
O1    c C4    c C5    c C5    c  -.1505E-01 +   3     0.00  Bonded              
O2    c C4    c C5    c C5    c  -.1199E-01 -   2     0.00  Bonded              
O2    c C4    c C5    c H2    c  0.2862E-02 -   2     0.00  Bonded              
C5    c C4    c O2    c C6    c  0.1012     +   1     0.00  Bonded              
C5    c C4    c O2    c C6    c  0.1111     -   2     0.00  Bonded              
O1    c C4    c O2    c C6    c  0.1111     -   2     0.00  Bonded              
C4    c O2    c C6    c H2    c  0.4293E-02 +   3     0.00  Bonded              
C1    c C7    c C5    c C5    c  0.2819E-01 +   1     0.00  Bonded              
C1    c C7    c C5    c C5    c  -.1084E-02 -   2     0.00  Bonded              
C1    c C7    c C5    c C5    c  0.4336E-02 +   3     0.00  Bonded              
C1    c C7    c C5    c H2    c  0.6505E-02 +   3     0.00  Bonded              
C1    c C1    c C7    c C3    c  0.3144     -   2     0.00  Bonded              
C1    c C1    c C7    c C5    c  0.3144     -   2     0.00  Bonded              
--------------------------------------------------------------------------------

  Bond-order two-body potentials :

--------------------------------------------------------------------------------
Atom  Types                 A                 B                  Cutoffs(Ang)   
  1     2                 ZetaA             ZetaB                Taper    Max   
--------------------------------------------------------------------------------
C1   c C1   c          1393.6000000000       430.0000000000     1.8000   2.1000
                          3.487900000          2.211900000    
--------------------------------------------------------------------------------

  Bond-order repulsive :

--------------------------------------------------------------------------------
Atom    Type         Alpha            N             Lambda          M           
 1/2     1/2                                                                    
--------------------------------------------------------------------------------
C1   c             0.00000000       0.72751000       2.21190000       3
C1   c
--------------------------------------------------------------------------------

  Bond-order attractive :

--------------------------------------------------------------------------------
Atom    Type         Alpha            N             Lambda          M           
 1/2     1/2           C              D                H                        
--------------------------------------------------------------------------------
C1   c  Theta       0.00000016       0.72751000       2.21190000       3
C1   c          38049.00000000       4.38400000      -0.93000000
--------------------------------------------------------------------------------

********************************************************************************
*  Output for configuration   1                                                *
********************************************************************************


  Components of energy : 

--------------------------------------------------------------------------------
  Interatomic potentials     =         447.85278231 eV
  Three-body potentials      =          31.44990197 eV
  Four-body potentials       =          11.92899375 eV
  Out of plane potentials    =           0.00000000 eV
  Bond-order potentials      =       -1726.51240835 eV
  Monopole - monopole (real) =           6.90887775 eV
  Monopole - monopole (recip)=           0.00000000 eV
  Monopole - monopole (total)=           6.90887775 eV
  Wolf sum self energy       =          -8.47010716 eV
--------------------------------------------------------------------------------
  Total lattice energy       =       -1236.84195972 eV
--------------------------------------------------------------------------------
  Total lattice energy       =         -119336.3423 kJ/(mole unit cells)
--------------------------------------------------------------------------------


  Number of variables =     1197

  Maximum number of calculations  =         10000
  Maximum Hessian update interval =            10
  Maximum step size               =   1.000000000
  Maximum parameter tolerance     =   0.000010000
  Maximum function  tolerance     =   0.000010000
  Maximum gradient  tolerance     =   0.001000000
  Maximum gradient  component     =   0.010000000

  Symmetry not applied to optimisation

  Newton-Raphson optimiser to be used

  BFGS hessian update to be used

  Start of bulk optimisation :

  Cycle:      0 Energy:     -1236.841960  Gnorm:     32.824962  CPU:    1.376
  ** Hessian calculated **
  Cycle:      1 Energy:     -1919.959688  Gnorm:      1.471861  CPU:    9.836
  ** Hessian calculated **
  Cycle:      2 Energy:     -1971.579099  Gnorm:      0.423540  CPU:   16.944
  ** Hessian calculated **
  Cycle:      3 Energy:     -1985.325509  Gnorm:      0.285237  CPU:   23.396
  ** Hessian calculated **
  Cycle:      4 Energy:     -1989.486986  Gnorm:      0.197066  CPU:   29.192
  Cycle:      5 Energy:     -1993.858120  Gnorm:      0.182361  CPU:   31.596
  Cycle:      6 Energy:     -1996.051098  Gnorm:      0.122984  CPU:   34.004
  Cycle:      7 Energy:     -1997.455633  Gnorm:      0.113821  CPU:   36.984
  Cycle:      8 Energy:     -1998.588198  Gnorm:      0.095273  CPU:   39.964
  Cycle:      9 Energy:     -1999.359884  Gnorm:      0.088889  CPU:   42.352
  Cycle:     10 Energy:     -2000.038359  Gnorm:      0.076460  CPU:   45.324
  Cycle:     11 Energy:     -2000.532578  Gnorm:      0.074770  CPU:   47.712
  Cycle:     12 Energy:     -2001.184177  Gnorm:      0.077513  CPU:   50.688
  Cycle:     13 Energy:     -2001.624692  Gnorm:      0.068517  CPU:   53.076
  ** Hessian calculated **
  Cycle:     14 Energy:     -2003.596674  Gnorm:      0.088468  CPU:   60.080
  ** Hessian calculated **
  Cycle:     15 Energy:     -2003.906248  Gnorm:      0.045908  CPU:   65.980
  Cycle:     16 Energy:     -2004.062079  Gnorm:      0.035969  CPU:   68.372
  Cycle:     17 Energy:     -2004.205079  Gnorm:      0.034326  CPU:   71.352
  Cycle:     18 Energy:     -2004.335183  Gnorm:      0.036615  CPU:   74.340
  Cycle:     19 Energy:     -2004.464802  Gnorm:      0.039839  CPU:   77.328
  Cycle:     20 Energy:     -2004.599073  Gnorm:      0.040511  CPU:   80.308
  Cycle:     21 Energy:     -2004.800150  Gnorm:      0.039851  CPU:   83.288
  Cycle:     22 Energy:     -2004.963447  Gnorm:      0.040696  CPU:   86.276
  Cycle:     23 Energy:     -2005.123479  Gnorm:      0.035145  CPU:   89.256
  Cycle:     24 Energy:     -2005.244503  Gnorm:      0.029784  CPU:   91.692
  ** Hessian calculated **
  Cycle:     25 Energy:     -2005.674509  Gnorm:      0.038031  CPU:   99.252
  Cycle:     26 Energy:     -2005.886660  Gnorm:      0.044007  CPU:  101.644
  ** Hessian calculated **
  Cycle:     27 Energy:     -2006.186878  Gnorm:      0.059734  CPU:  108.092
  Cycle:     28 Energy:     -2006.491034  Gnorm:      0.039072  CPU:  111.200
  Cycle:     29 Energy:     -2006.606345  Gnorm:      0.039676  CPU:  113.596
  Cycle:     30 Energy:     -2006.659788  Gnorm:      0.041635  CPU:  116.004
  ** Hessian calculated **
  Cycle:     31 Energy:     -2006.977466  Gnorm:      0.048060  CPU:  122.388
  ** Hessian calculated **
  Cycle:     32 Energy:     -2007.446742  Gnorm:      0.050862  CPU:  128.148
  Cycle:     33 Energy:     -2007.666702  Gnorm:      0.036641  CPU:  130.528
  Cycle:     34 Energy:     -2007.784456  Gnorm:      0.020439  CPU:  133.504
  Cycle:     35 Energy:     -2007.915680  Gnorm:      0.024000  CPU:  137.080
  Cycle:     36 Energy:     -2007.986244  Gnorm:      0.030437  CPU:  139.488
  Cycle:     37 Energy:     -2008.058657  Gnorm:      0.030100  CPU:  142.484
  Cycle:     38 Energy:     -2008.112273  Gnorm:      0.018265  CPU:  145.472
  Cycle:     39 Energy:     -2008.144029  Gnorm:      0.011436  CPU:  147.892
  Cycle:     40 Energy:     -2008.177131  Gnorm:      0.016133  CPU:  152.084
  Cycle:     41 Energy:     -2008.203832  Gnorm:      0.017624  CPU:  154.476
  ** Hessian calculated **
  Cycle:     42 Energy:     -2008.274757  Gnorm:      0.009448  CPU:  160.392
  Cycle:     43 Energy:     -2008.282933  Gnorm:      0.006483  CPU:  162.788
  Cycle:     44 Energy:     -2008.288066  Gnorm:      0.002708  CPU:  166.368
  Cycle:     45 Energy:     -2008.288235  Gnorm:      0.003455  CPU:  171.772
  Cycle:     46 Energy:     -2008.288235  Gnorm:      0.003455  CPU:  175.348
  ** Hessian calculated **
  Cycle:     47 Energy:     -2008.288235  Gnorm:      0.003455  CPU:  184.112
  ** Hessian calculated **

  XYZ File written as gulp.xyz                                



  **** Conditions for a minimum have not been satisfied. However ****
  **** no lower point can be found - treat results with caution  ****
  **** unless gradient norm is small (less than 0.1)             ****


  Final energy =   -2008.28823467 eV
  Final Gnorm  =       0.00345529

  Components of energy : 

--------------------------------------------------------------------------------
  Interatomic potentials     =        -316.01876644 eV
  Three-body potentials      =          30.59054049 eV
  Four-body potentials       =          14.17140740 eV
  Out of plane potentials    =           0.00000000 eV
  Bond-order potentials      =       -1736.01057138 eV
  Monopole - monopole (real) =           7.44926242 eV
  Monopole - monopole (recip)=           0.00000000 eV
  Monopole - monopole (total)=           7.44926242 eV
  Wolf sum self energy       =          -8.47010716 eV
--------------------------------------------------------------------------------
  Total lattice energy       =       -2008.28823467 eV
--------------------------------------------------------------------------------
  Total lattice energy       =         -193769.1151 kJ/(mole unit cells)
--------------------------------------------------------------------------------

  Final fractional coordinates of atoms :

--------------------------------------------------------------------------------
   No.  Atomic        x           y          z          Radius
        Label       (Frac)      (Frac)     (Frac)       (Angs) 
--------------------------------------------------------------------------------
     1  C1    c     0.215559    0.184381    0.392082    0.000000
     2  C1    c     0.162574    0.134857    0.333153    0.000000
     3  C1    c     0.075820    0.086256    0.343339    0.000000
     4  C1    c     0.049604    0.082536    0.410551    0.000000
     5  C1    c     0.106139    0.130460    0.473284    0.000000
     6  C1    c     0.183332    0.183277    0.462201    0.000000
     7  C1    c     0.181586    0.267686    0.485718    0.000000
     8  C1    c     0.218088    0.323029    0.438470    0.000000
     9  C1    c     0.233438    0.272669    0.376881    0.000000
    10  C1    c     0.199685    0.305506    0.304405    0.000000
    11  C1    c     0.143335    0.253098    0.244284    0.000000
    12  C1    c     0.125020    0.170375    0.257752    0.000000
    13  C1    c     0.022557    0.137722    0.222489    0.000000
    14  C1    c     0.992758    0.086292    0.275790    0.000000
    15  C1    c     0.889352    0.076920    0.275981    0.000000
    16  C1    c     0.863574    0.073676    0.346141    0.000000
    17  C1    c     0.942409    0.079214    0.410751    0.000000
    18  C1    c     0.930030    0.126715    0.472730    0.000000
    19  C1    c     0.029989    0.159147    0.510316    0.000000
    20  C1    c     0.033196    0.239195    0.535488    0.000000
    21  C1    c     0.107653    0.293932    0.520784    0.000000
    22  C1    c     0.070366    0.376590    0.516760    0.000000
    23  C1    c     0.100167    0.428887    0.466637    0.000000
    24  C1    c     0.175028    0.402234    0.427414    0.000000
    25  C1    c     0.139788    0.434157    0.352159    0.000000
    26  C1    c     0.151003    0.386421    0.292496    0.000000
    27  C1    c     0.065603    0.381964    0.226938    0.000000
    28  C1    c     0.060939    0.300739    0.197065    0.000000
    29  C1    c     0.965798    0.267429    0.159940    0.000000
    30  C1    c     0.945393    0.182339    0.172110    0.000000
    31  C1    c     0.838548    0.176264    0.174980    0.000000
    32  C1    c     0.810310    0.124316    0.225459    0.000000
    33  C1    c     0.736597    0.152369    0.265327    0.000000
    34  C1    c     0.770655    0.120485    0.340129    0.000000
    35  C1    c     0.760409    0.168517    0.399255    0.000000
    36  C1    c     0.839815    0.169479    0.468461    0.000000
    37  C1    c     0.844592    0.251479    0.498236    0.000000
    38  C1    c     0.941275    0.285886    0.530836    0.000000
    39  C1    c     0.963582    0.370773    0.520396    0.000000
    40  C1    c     0.887650    0.415452    0.470029    0.000000
    41  C1    c     0.916621    0.467783    0.416664    0.000000
    42  C1    c     0.019280    0.473756    0.415107    0.000000
    43  C1    c     0.043912    0.476668    0.345845    0.000000
    44  C1    c     0.964030    0.473638    0.280972    0.000000
    45  C1    c     0.976090    0.426901    0.219176    0.000000
    46  C1    c     0.876960    0.393723    0.181493    0.000000
    47  C1    c     0.873258    0.314147    0.154643    0.000000
    48  C1    c     0.798761    0.258573    0.169071    0.000000
    49  C1    c     0.724728    0.284628    0.204353    0.000000
    50  C1    c     0.691214    0.229812    0.253293    0.000000
    51  C1    c     0.677443    0.279363    0.315207    0.000000
    52  C1    c     0.710762    0.248091    0.387280    0.000000
    53  C1    c     0.766721    0.299187    0.448069    0.000000
    54  C1    c     0.789972    0.379949    0.433367    0.000000
    55  C1    c     0.754231    0.413790    0.359287    0.000000
    56  C1    c     0.699235    0.364805    0.300617    0.000000
    57  C1    c     0.725691    0.367954    0.229800    0.000000
    58  C1    c     0.802689    0.420756    0.219850    0.000000
    59  C1    c     0.859093    0.469630    0.282105    0.000000
    60  C1    c     0.834511    0.467764    0.349878    0.000000
    61  C1    c     0.266864    0.687256    0.107775    0.000000
    62  C1    c     0.314921    0.640458    0.169913    0.000000
    63  C1    c     0.403149    0.589009    0.165614    0.000000
    64  C1    c     0.435437    0.581221    0.100790    0.000000
    65  C1    c     0.382800    0.626540    0.035367    0.000000
    66  C1    c     0.302822    0.679518    0.040046    0.000000
    67  C1    c     0.305206    0.762371    0.012982    0.000000
    68  C1    c     0.263461    0.820902    0.054789    0.000000
    69  C1    c     0.245961    0.774976    0.117445    0.000000
    70  C1    c     0.272328    0.811503    0.188356    0.000000
    71  C1    c     0.325241    0.762640    0.252252    0.000000
    72  C1    c     0.347844    0.679841    0.243362    0.000000
    73  C1    c     0.448468    0.647989    0.283434    0.000000
    74  C1    c     0.482991    0.592264    0.235379    0.000000
    75  C1    c     0.588401    0.582458    0.240178    0.000000
    76  C1    c     0.619441    0.576217    0.172074    0.000000
    77  C1    c     0.544431    0.576729    0.104880    0.000000
    78  C1    c     0.561047    0.621329    0.042409    0.000000
    79  C1    c     0.462503    0.653141    0.001120    0.000000
    80  C1    c     0.459327    0.730990    0.971595    0.000000
    81  C1    c     0.381826    0.786274    0.979556    0.000000
    82  C1    c     0.417420    0.869367    0.980747    0.000000
    83  C1    c     0.382876    0.923766    0.027007    0.000000
    84  C1    c     0.304229    0.900603    0.063484    0.000000
    85  C1    c     0.333737    0.936361    0.137289    0.000000
    86  C1    c     0.318381    0.892961    0.198083    0.000000
    87  C1    c     0.398247    0.894160    0.267094    0.000000
    88  C1    c     0.403221    0.813400    0.299486    0.000000
    89  C1    c     0.497285    0.781545    0.340582    0.000000
    90  C1    c     0.521745    0.695994    0.333372    0.000000
    91  C1    c     0.630383    0.688849    0.336292    0.000000
    92  C1    c     0.664978    0.632265    0.291777    0.000000
    93  C1    c     0.742183    0.658173    0.253707    0.000000
    94  C1    c     0.713080    0.623027    0.179519    0.000000
    95  C1    c     0.728161    0.666817    0.119262    0.000000
    96  C1    c     0.651418    0.664583    0.048114    0.000000
    97  C1    c     0.647198    0.744801    0.014250    0.000000
    98  C1    c     0.551317    0.777699    0.977436    0.000000
    99  C1    c     0.525966    0.863345    0.981804    0.000000
   100  C1    c     0.597830    0.910943    0.032250    0.000000
   101  C1    c     0.563195    0.964651    0.081976    0.000000
   102  C1    c     0.459481    0.970683    0.079663    0.000000
   103  C1    c     0.428379    0.981693    0.146099    0.000000
   104  C1    c     0.503037    0.985123    0.214094    0.000000
   105  C1    c     0.487158    0.940925    0.276774    0.000000
   106  C1    c     0.585238    0.906454    0.316694    0.000000
   107  C1    c     0.589428    0.828679    0.347362    0.000000
   108  C1    c     0.667281    0.772322    0.339714    0.000000
   109  C1    c     0.743573    0.796044    0.305806    0.000000
   110  C1    c     0.782380    0.737736    0.262219    0.000000
   111  C1    c     0.798466    0.783551    0.198994    0.000000
   112  C1    c     0.774416    0.747819    0.128643    0.000000
   113  C1    c     0.721282    0.795571    0.064496    0.000000
   114  C1    c     0.693998    0.876810    0.074318    0.000000
   115  C1    c     0.722460    0.914962    0.146778    0.000000
   116  C1    c     0.774155    0.869376    0.208491    0.000000
   117  C1    c     0.742445    0.877463    0.276691    0.000000
   118  C1    c     0.662596    0.930427    0.280560    0.000000
   119  C1    c     0.609557    0.976916    0.216068    0.000000
   120  C1    c     0.640004    0.969548    0.150698    0.000000
   121  C1    c     0.765950    0.854813    0.611419    0.000000
   122  C1    c     0.815069    0.906579    0.669578    0.000000
   123  C1    c     0.896161    0.961162    0.658792    0.000000
   124  C1    c     0.921646    0.965717    0.591169    0.000000
   125  C1    c     0.868435    0.915156    0.528930    0.000000
   126  C1    c     0.795883    0.858618    0.540921    0.000000
   127  C1    c     0.800837    0.774193    0.517342    0.000000
   128  C1    c     0.768824    0.717352    0.565705    0.000000
   129  C1    c     0.752549    0.766541    0.627244    0.000000
   130  C1    c     0.787521    0.734798    0.699978    0.000000
   131  C1    c     0.840929    0.789027    0.759487    0.000000
   132  C1    c     0.855160    0.871903    0.744646    0.000000
   133  C1    c     0.954330    0.909544    0.779747    0.000000
   134  C1    c     0.979829    0.963648    0.726440    0.000000
   135  C1    c     0.082597    0.976405    0.725624    0.000000
   136  C1    c     0.107714    0.980600    0.655250    0.000000
   137  C1    c     0.028682    0.971409    0.591143    0.000000
   138  C1    c     0.043201    0.924426    0.529743    0.000000
   139  C1    c     0.945499    0.888772    0.492069    0.000000
   140  C1    c     0.946603    0.808650    0.467488    0.000000
   141  C1    c     0.874541    0.750634    0.480847    0.000000
   142  C1    c     0.917950    0.670075    0.486484    0.000000
   143  C1    c     0.892856    0.617423    0.538408    0.000000
   144  C1    c     0.816727    0.640036    0.577453    0.000000
   145  C1    c     0.853807    0.608978    0.652881    0.000000
   146  C1    c     0.840404    0.655724    0.712591    0.000000
   147  C1    c     0.925528    0.663388    0.778432    0.000000
   148  C1    c     0.925704    0.744793    0.807734    0.000000
   149  C1    c     0.018626    0.782222    0.843921    0.000000
   150  C1    c     0.034023    0.868021    0.830617    0.000000
   151  C1    c     0.140062    0.878616    0.827406    0.000000
   152  C1    c     0.164163    0.931210    0.775809    0.000000
   153  C1    c     0.239185    0.906550    0.735813    0.000000
   154  C1    c     0.203711    0.938191    0.660985    0.000000
   155  C1    c     0.216269    0.890920    0.602140    0.000000
   156  C1    c     0.136017    0.886121    0.533611    0.000000
   157  C1    c     0.135470    0.804234    0.504595    0.000000
   158  C1    c     0.041297    0.765845    0.472852    0.000000
   159  C1    c     0.024439    0.679843    0.482720    0.000000
   160  C1    c     0.103529    0.637798    0.532927    0.000000
   161  C1    c     0.078309    0.584203    0.587120    0.000000
   162  C1    c     0.976450    0.575121    0.589695    0.000000
   163  C1    c     0.952276    0.570680    0.659069    0.000000
   164  C1    c     0.031512    0.576477    0.723929    0.000000
   165  C1    c     0.017858    0.622606    0.785568    0.000000
   166  C1    c     0.114942    0.659700    0.822950    0.000000
   167  C1    c     0.113803    0.739483    0.848880    0.000000
   168  C1    c     0.185015    0.798308    0.833962    0.000000
   169  C1    c     0.260508    0.775574    0.798654    0.000000
   170  C1    c     0.289599    0.831352    0.748554    0.000000
   171  C1    c     0.306367    0.782947    0.687165    0.000000
   172  C1    c     0.269911    0.812821    0.614985    0.000000
   173  C1    c     0.216331    0.759967    0.554921    0.000000
   174  C1    c     0.197672    0.678667    0.570319    0.000000
   175  C1    c     0.235721    0.647070    0.644686    0.000000
   176  C1    c     0.289459    0.696987    0.702684    0.000000
   177  C1    c     0.264270    0.692455    0.773803    0.000000
   178  C1    c     0.190030    0.637243    0.783773    0.000000
   179  C1    c     0.134859    0.588264    0.721709    0.000000
   180  C1    c     0.159053    0.590392    0.654069    0.000000
   181  C1    c     0.713692    0.354720    0.892558    0.000000
   182  C1    c     0.664470    0.406202    0.834240    0.000000
   183  C1    c     0.583547    0.460980    0.845136    0.000000
   184  C1    c     0.558577    0.466629    0.912959    0.000000
   185  C1    c     0.612013    0.416389    0.975352    0.000000
   186  C1    c     0.684076    0.359431    0.963098    0.000000
   187  C1    c     0.678742    0.275197    0.986632    0.000000
   188  C1    c     0.710745    0.217629    0.938717    0.000000
   189  C1    c     0.726875    0.266341    0.876865    0.000000
   190  C1    c     0.691136    0.234094    0.804268    0.000000
   191  C1    c     0.637441    0.287990    0.744618    0.000000
   192  C1    c     0.623803    0.370988    0.759347    0.000000
   193  C1    c     0.524568    0.408509    0.724425    0.000000
   194  C1    c     0.499656    0.462935    0.777742    0.000000
   195  C1    c     0.397116    0.476000    0.778840    0.000000
   196  C1    c     0.372464    0.481097    0.849315    0.000000
   197  C1    c     0.451740    0.472676    0.913439    0.000000
   198  C1    c     0.437106    0.426758    0.975548    0.000000
   199  C1    c     0.535092    0.391056    0.012924    0.000000
   200  C1    c     0.533583    0.310948    0.037405    0.000000
   201  C1    c     0.604293    0.252524    0.022589    0.000000
   202  C1    c     0.561417    0.171874    0.017539    0.000000
   203  C1    c     0.586395    0.118435    0.966262    0.000000
   204  C1    c     0.662612    0.140323    0.927177    0.000000
   205  C1    c     0.624876    0.108689    0.851928    0.000000
   206  C1    c     0.637850    0.155119    0.791910    0.000000
   207  C1    c     0.552379    0.162331    0.726127    0.000000
   208  C1    c     0.552371    0.243680    0.696634    0.000000
   209  C1    c     0.459456    0.281035    0.660162    0.000000
   210  C1    c     0.444677    0.366849    0.673889    0.000000
   211  C1    c     0.339025    0.377596    0.677677    0.000000
   212  C1    c     0.315445    0.430657    0.729089    0.000000
   213  C1    c     0.240701    0.406699    0.769408    0.000000
[...]
   985     1478.8556                  0.00002603391793
   986     1479.3568                  0.00000514826386
   987     1480.8615                  0.00000139997402
   988     1481.5619                  0.00002727410994
   989     1481.8118                  0.00003012178978
   990     1482.5600                  0.00000425076367
   991     1483.5010                  0.00000204112873
   992     1484.3036                  0.00000476284887
   993     1485.1615                  0.00002323473799
   994     1485.6695                  0.00004054284161
   995     1486.0036                  0.00003074388887
   996     1486.5351                  0.00001060957982
   997     1488.3039                  0.00000000000000
   998     1489.3493                  0.00000000000000
   999     1491.7869                  0.00000000000000
  1000     1493.3708                  0.00000000000000
  1001     1494.8164                  0.00001487778614
  1002     1495.2292                  0.00001486957291
  1003     1497.6441                  0.00000000000000
  1004     1498.8791                  0.00001854778096
  1005     1499.6312                  0.00006694233025
  1006     1499.9380                  0.00004839334190
  1007     1501.0236                  0.00000000000000
  1008     1502.1601                  0.00001690640940
  1009     1502.4638                  0.00001689957508
  1010     1503.7422                  0.00011220769355
  1011     1503.8297                  0.00011219464211
  1012     1505.8195                  0.00000964692579
  1013     1506.5489                  0.00001041559180
  1014     1507.2280                  0.00000077730409
  1015     1508.6401                  0.00011945134314
  1016     1508.7492                  0.00011792813442
  1017     1509.4736                  0.00001770548829
  1018     1509.7468                  0.00002632456265
  1019     1510.1459                  0.00001238817130
  1020     1511.2618                  0.00000000000000
  1021     1514.0697                  0.00000000000000
  1022     1515.1911                  0.00000515359123
  1023     1515.5656                  0.00000895637071
  1024     1516.3079                  0.00000380160108
  1025     1517.7788                  0.00000000000000
  1026     1519.1004                  0.00000000000000
  1027     1520.3383                  0.00000000000000
  1028     1521.7824                  0.00001038691940
  1029     1521.9412                  0.00001038475272
  1030     1523.9648                  0.00001519304408
  1031     1524.6656                  0.00002464970221
  1032     1525.1562                  0.00000946453063
  1033     1526.1110                  0.00000000000000
  1034     1528.3732                  0.00000591000066
  1035     1529.1366                  0.00000834561307
  1036     1529.9923                  0.00000243878120
  1037     1531.5499                  0.00001533809773
  1038     1532.0038                  0.00001532901059
  1039     1533.7661                  0.00000000000000
  1040     1534.8306                  0.00003037429010
  1041     1535.0795                  0.00003179331454
  1042     1535.8225                  0.00000142749048
  1043     1536.8826                  0.00000179462870
  1044     1537.6390                  0.00000179286337
  1045     1540.3081                  0.00001276941790
  1046     1540.7425                  0.00001276221907
  1047     1541.6911                  0.00000026764552
  1048     1542.4781                  0.00000026737249
  1049     1543.4764                  0.00000238055756
  1050     1544.2560                  0.00000237815469
  1051     1546.8310                  0.00001091563012
  1052     1547.6333                  0.00002120227107
  1053     1548.1259                  0.00001252765104
  1054     1548.9866                  0.00000650988384
  1055     1549.4654                  0.00000843098143
  1056     1550.0216                  0.00000415452252
  1057     1550.9666                  0.00000000000000
  1058     1552.0675                  0.00000000000000
  1059     1555.0045                  0.00006472308455
  1060     1555.1868                  0.00006423187619
  1061     1555.6641                  0.00000322553021
  1062     1556.3014                  0.00001102704277
  1063     1556.7511                  0.00000995035285
  1064     1559.2990                  0.00000000000000
  1065     1561.1942                  0.00000096947883
  1066     1561.8789                  0.00000096862904
  1067     1563.1562                  0.00000000000000
  1068     1564.2595                  0.00000000000000
  1069     1567.8431                  0.00000136669755
  1070     1568.6940                  0.00000136521522
  1071     1570.0318                  0.00000000000000
  1072     1572.2511                  0.00000000000000
  1073     1576.0037                  0.00000000000000
  1074     1578.2830                  0.00000000000000
  1075     1579.9872                  0.00000000000000
  1076     1582.0663                  0.00000000000000
  1077     1587.4435                  0.00000000000000
  1078     1589.3270                  0.00000000000000
  1079     1596.2071                  0.00000012299418
  1080     1597.0632                  0.00000012286234
  1081     1601.2727                  0.00000018456137
  1082     1601.7774                  0.00000067117925
  1083     1602.5786                  0.00000731703819
  1084     1602.7133                  0.00000773232598
  1085     1603.6398                  0.00000090164001
  1086     1605.5857                  0.00000000000000
  1087     1609.9250                  0.00001048548863
  1088     1610.1990                  0.00001048192066
  1089     1612.9082                  0.00000000000000
  1090     1615.6727                  0.00000042126920
  1091     1616.5313                  0.00000042082182
  1092     1618.3280                  0.00000000000000
  1093     1624.3703                  0.00000991380578
  1094     1624.6893                  0.00001180659912
  1095     1625.4318                  0.00000189495372
  1096     1627.0354                  0.00000000000000
  1097     1629.3716                  0.00000000000000
  1098     1631.7266                  0.00000027408553
  1099     1632.4209                  0.00000027385242
  1100     1634.6801                  0.00000000000000
  1101     1640.9405                  0.00000000000000
  1102     1642.5481                  0.00000000353017
  1103     1643.1839                  0.00000175477923
  1104     1643.8986                  0.00000174972947
  1105     1651.6211                  0.00000000000000
  1106     1655.1975                  0.00000000000000
  1107     1656.4511                  0.00000000000000
  1108     1661.5496                  0.00000000000000
  1109     1662.9277                  0.00000000000000
  1110     1666.7622                  0.00000003599449
  1111     1667.1519                  0.00000003597766
  1112     1676.1761                  0.00000000000000
  1113     1694.2752                  0.00000000661128
  1114     1694.6155                  0.00000482681319
  1115     1695.4543                  0.00000481796537
  1116     1695.6000                  0.00000005872147
  1117     1695.8349                  0.00000005851153
  1118     1696.6282                  0.00000000105686
  1119     1698.2549                  0.00000000012213
  1120     1699.0559                  0.00000000012201
  1121     1706.2849                  0.00000000000000
  1122     1708.4677                  0.00000000000000
  1123     1711.1649                  0.00000000000000
  1124     1714.0901                  0.00000000000000
  1125     1751.4186                  0.00000000000000
  1126     1759.5349                  0.00000000000000
  1127     1769.0510                  0.00000000000000
  1128     1808.0662                  0.00000000000000
  1129     2926.6008                  0.00000000000000
  1130     2928.3269                  0.00000000000000
  1131     2930.5662                  0.00000000000000
  1132     2934.5253                  0.00000000002237
  1133     2935.0825                  0.00000000002738
  1134     2935.6331                  0.00000000000501
  1135     2937.3995                  0.00000000000000
  1136     2943.5704                  0.00000000000000
  1137     2948.9323                  0.00000000000000
  1138     2951.3824                  0.00000000007148
  1139     2952.2796                  0.00000000007164
  1140     2952.4208                  0.00000000000021
  1141     2976.5062                  0.00000000000033
  1142     2977.2984                  0.00000000000033
  1143     2978.3172                  0.00000000001806
  1144     2978.8645                  0.00000000001805
  1145     2987.2204                  0.00000000000000
  1146     2992.8181                  0.00000000000000
  1147     2994.1394                  0.00000000000000
  1148     3000.1642                  0.00000000000000
  1149     3005.5664                  0.00000000000000
  1150     3008.9636                  0.00000000000000
  1151     3012.3499                  0.00000000000000
  1152     3038.7858                  0.00000000000000
  1153     3041.5713                  0.00000000000000
  1154     3043.1963                  0.00000000000000
  1155     3048.3928                  0.00000000000000
  1156     3049.7841                  0.00000000000092
  1157     3050.1596                  0.00000000000092
  1158     3052.0791                  0.00000000000000
  1159     3056.9569                  0.00000000000000
  1160     3058.0251                  0.00000000000519
  1161     3058.7266                  0.00000000000519
  1162     3070.8449                  0.00000000000000
  1163     3089.4680                  0.00000000000000
  1164     3090.7542                  0.00000000000011
  1165     3091.5488                  0.00000000000011
  1166     3092.7606                  0.00000000000127
  1167     3093.4369                  0.00000000000127
  1168     3095.1927                  0.00000000000000
  1169     3097.7097                  0.00000000000000
  1170     3098.7020                  0.00000000092437
  1171     3099.1261                  0.00000000092412
  1172     3100.8154                  0.00000000000000
  1173     3102.6672                  0.00000001300082
  1174     3103.1881                  0.00000001503408
  1175     3103.3563                  0.00000000256338
  1176     3104.4283                  0.00000000000000
  1177     3113.7647                  0.00000000000000
  1178     3146.7940                  0.00000000000000
  1179     3150.2732                  0.00000000001851
  1180     3151.0003                  0.00000003521328
  1181     3151.8016                  0.00000003517689
  1182     3157.8951                  0.00000000000000
  1183     3159.8702                  0.00000000121470
  1184     3160.0150                  0.00000000121459
  1185     3170.8339                  0.00000000000000
  1186     3172.1517                  0.00000000000000
  1187     3179.3079                  0.00000000000000
  1188     3186.8277                  0.00000000000000
  1189     3193.3681                  0.00000000000000
  1190     3201.3353                  0.00000000037929
  1191     3201.6670                  0.00000000037921
  1192     3204.6486                  0.00000000000000
  1193     3208.6734                  0.00000000000000
  1194     3221.0535                  0.00000000000000
  1195     3241.4083                  0.00000000000008
  1196     3241.9083                  0.00000000000008
  1197     3245.6360                  0.00000000000000
  1198     3252.5033                  0.00000000000000
  1199     3265.8487                  0.00000000000000
  1200     3268.0775                  0.00000000000000
--------------------------------------------------------------------------------
  Thermal conductivity =     0.000000 W/(m.K) 
--------------------------------------------------------------------------------

--------------------------------------------------------------------------------
  Phonon properties (per mole of unit cells): Temperature =     10.000 K
--------------------------------------------------------------------------------
  Zero point energy            =       78.806938 eV
  Entropy                      =        0.000015 eV/K
                               =        1.461069 J/(mol.K)
  Helmholtz free-energy        =    -1929.481321 eV
                               =  -186165.436389 kJmol-1
  Free energy (equipartition)  =    -2003.326008 eV
  - T*S       (equipartition)  =        3.930731 eV
  Uvib        (equipartition)  =        1.031495 eV
  Mean kinetic energy          =       39.404825 eV
  Heat capacity - const volume =        0.000069 eV/K
                               =        6.630034 J/(mol.K)
--------------------------------------------------------------------------------

  Phonon density of states : 

  Broadening factor =     0.0100

--------------------------------------------------------------------------------
 Frequency (cm-1) Density of States                                             
--------------------------------------------------------------------------------
    0.00000 |***************                                               0.009
   53.37235 |********************                                          0.012
  106.74471 |*************************                                     0.015
  160.11706 |******************************                                0.018
  213.48942 |**********************************                            0.020
  266.86177 |**************************************                        0.022
  320.23413 |*******************************************                   0.025
  373.60648 |************************************************              0.028
  426.97884 |***************************************************           0.030
  480.35119 |*****************************************************         0.031
  533.72354 |******************************************************        0.031
  587.09590 |******************************************************        0.031
  640.46825 |******************************************************        0.031
  693.84061 |*****************************************************         0.031
  747.21296 |*****************************************************         0.031
  800.58532 |*****************************************************         0.031
  853.95767 |*****************************************************         0.031
  907.33002 |******************************************************        0.032
  960.70238 |*******************************************************       0.032
 1014.07473 |******************************************************        0.031
 1067.44709 |*******************************************************       0.032
 1120.81944 |*******************************************************       0.032
 1174.19180 |*****************************************************         0.031
 1227.56415 |***************************************************           0.030
 1280.93651 |***************************************************           0.030
 1334.30886 |******************************************************        0.032
 1387.68121 |**********************************************************    0.034
 1441.05357 |************************************************************  0.035
 1494.42592 |********************************************************      0.033
 1547.79828 |************************************************              0.028
 1601.17063 |***************************************                       0.023
 1654.54299 |******************************                                0.018
 1707.91534 |**********************                                        0.013
 1761.28770 |****************                                              0.009
 1814.66005 |***********                                                   0.007
 1868.03240 |********                                                      0.005
 1921.40476 |******                                                        0.004
 1974.77711 |*****                                                         0.003
 2028.14947 |****                                                          0.003
 2081.52182 |***                                                           0.002
 2134.89418 |***                                                           0.002
 2188.26653 |***                                                           0.002
 2241.63888 |**                                                            0.002
 2295.01124 |**                                                            0.001
 2348.38359 |**                                                            0.001
 2401.75595 |**                                                            0.001
 2455.12830 |**                                                            0.001
 2508.50066 |**                                                            0.001
 2561.87301 |**                                                            0.001
 2615.24537 |**                                                            0.001
 2668.61772 |**                                                            0.001
 2721.99007 |**                                                            0.002
 2775.36243 |***                                                           0.002
 2828.73478 |****                                                          0.003
 2882.10714 |******                                                        0.004
 2935.47949 |*********                                                     0.006
 2988.85185 |***********                                                   0.007
 3042.22420 |************                                                  0.007
 3095.59656 |*************                                                 0.008
 3148.96891 |************                                                  0.007
 3202.34126 |**********                                                    0.006
 3255.71362 |*******                                                       0.005
 3309.08597 |*****                                                         0.003
 3362.45833 |***                                                           0.002
--------------------------------------------------------------------------------



  Time to end of optimisation =     262.0000 seconds


  Peak dynamic memory used =      30.75 MB 


  Timing analysis for GULP :

--------------------------------------------------------------------------------
  Task / Subroutine                                          Time (Seconds)
--------------------------------------------------------------------------------
  Calculation of real space energy and derivatives              138.5120
  Calculation of three-body energy and derivatives                6.2080
  Calculation of four-body energy and derivatives                 2.9720
  Calculation of Bond Order energy and derivatives                7.5360
  Calculation of molecules and connectivity                       2.5920
  Calculation of phonons                                         64.9240
  Calculation of scattering                                       0.0000
  Calculation of matrix inversion                                35.9960
  Disk read/write operations to scratch files                     0.0040
--------------------------------------------------------------------------------
  Total CPU time                                                262.0000
--------------------------------------------------------------------------------


  LAMMPS file written on channel 26


  Job Finished at 11:32.07  9th July       2013                               

